15361536   0   0
  0.1158988E+02  0.2647214E-08  0.2647214E-08  0.2540341E-08  0.2000000E-14
   1500.00000000000     
  CAR 
 unknown system                          
     12.50599823    -46.40860335  301      6.52555248      1.00000000
    -46.409  0.0000E+00  0.0000E+00
    -46.212  0.0000E+00  0.0000E+00
    -46.016  0.0000E+00  0.0000E+00
    -45.819  0.0000E+00  0.0000E+00
    -45.623  0.0000E+00  0.0000E+00
    -45.427  0.0000E+00  0.0000E+00
    -45.230  0.0000E+00  0.0000E+00
    -45.034  0.0000E+00  0.0000E+00
    -44.838  0.2783E-13  0.5460E-14
    -44.641  0.6708E-09  0.1316E-09
    -44.445  0.2482E-05  0.4874E-06
    -44.248  0.1447E-02  0.2846E-03
    -44.052  0.1401E+00  0.2779E-01
    -43.856  0.2525E+01  0.5233E+00
    -43.659  0.1117E+02  0.2713E+01
    -43.463  0.2327E+02  0.7273E+01
    -43.266  0.4452E+02  0.1600E+02
    -43.070  0.7897E+02  0.3147E+02
    -42.874  0.1225E+03  0.5549E+02
    -42.677  0.1650E+03  0.8787E+02
    -42.481  0.1936E+03  0.1259E+03
    -42.285  0.1934E+03  0.1639E+03
    -42.088  0.1646E+03  0.1963E+03
    -41.892  0.1227E+03  0.2204E+03
    -41.695  0.8186E+02  0.2365E+03
    -41.499  0.4846E+02  0.2461E+03
    -41.303  0.2661E+02  0.2513E+03
    -41.106  0.1439E+02  0.2541E+03
    -40.910  0.6471E+01  0.2554E+03
    -40.714  0.2238E+01  0.2559E+03
    -40.517  0.6270E+00  0.2560E+03
    -40.321  0.8715E-01  0.2560E+03
    -40.124  0.3633E-02  0.2560E+03
    -39.928  0.3472E-04  0.2560E+03
    -39.732  0.6375E-07  0.2560E+03
    -39.535  0.1992E-10  0.2560E+03
    -39.339  0.9827E-15  0.2560E+03
    -39.142  0.0000E+00  0.2560E+03
    -38.946  0.0000E+00  0.2560E+03
    -38.750  0.0000E+00  0.2560E+03
    -38.553  0.0000E+00  0.2560E+03
    -38.357  0.0000E+00  0.2560E+03
    -38.161  0.0000E+00  0.2560E+03
    -37.964  0.0000E+00  0.2560E+03
    -37.768  0.0000E+00  0.2560E+03
    -37.571  0.0000E+00  0.2560E+03
    -37.375  0.0000E+00  0.2560E+03
    -37.179  0.0000E+00  0.2560E+03
    -36.982  0.0000E+00  0.2560E+03
    -36.786  0.0000E+00  0.2560E+03
    -36.590  0.0000E+00  0.2560E+03
    -36.393  0.0000E+00  0.2560E+03
    -36.197  0.0000E+00  0.2560E+03
    -36.000  0.0000E+00  0.2560E+03
    -35.804  0.0000E+00  0.2560E+03
    -35.608  0.0000E+00  0.2560E+03
    -35.411  0.0000E+00  0.2560E+03
    -35.215  0.0000E+00  0.2560E+03
    -35.018  0.0000E+00  0.2560E+03
    -34.822  0.0000E+00  0.2560E+03
    -34.626  0.0000E+00  0.2560E+03
    -34.429  0.0000E+00  0.2560E+03
    -34.233  0.0000E+00  0.2560E+03
    -34.037  0.0000E+00  0.2560E+03
    -33.840  0.0000E+00  0.2560E+03
    -33.644  0.0000E+00  0.2560E+03
    -33.447  0.0000E+00  0.2560E+03
    -33.251  0.0000E+00  0.2560E+03
    -33.055  0.0000E+00  0.2560E+03
    -32.858  0.0000E+00  0.2560E+03
    -32.662  0.0000E+00  0.2560E+03
    -32.465  0.0000E+00  0.2560E+03
    -32.269  0.0000E+00  0.2560E+03
    -32.073  0.0000E+00  0.2560E+03
    -31.876  0.0000E+00  0.2560E+03
    -31.680  0.0000E+00  0.2560E+03
    -31.484  0.0000E+00  0.2560E+03
    -31.287  0.0000E+00  0.2560E+03
    -31.091  0.0000E+00  0.2560E+03
    -30.894  0.0000E+00  0.2560E+03
    -30.698  0.0000E+00  0.2560E+03
    -30.502  0.0000E+00  0.2560E+03
    -30.305  0.0000E+00  0.2560E+03
    -30.109  0.0000E+00  0.2560E+03
    -29.913  0.0000E+00  0.2560E+03
    -29.716  0.0000E+00  0.2560E+03
    -29.520  0.0000E+00  0.2560E+03
    -29.323  0.0000E+00  0.2560E+03
    -29.127  0.0000E+00  0.2560E+03
    -28.931  0.0000E+00  0.2560E+03
    -28.734  0.0000E+00  0.2560E+03
    -28.538  0.0000E+00  0.2560E+03
    -28.341  0.0000E+00  0.2560E+03
    -28.145  0.7576E-17  0.2560E+03
    -27.949  0.3374E-12  0.2560E+03
    -27.752  0.2379E-08  0.2560E+03
    -27.556  0.2746E-05  0.2560E+03
    -27.360  0.5613E-03  0.2560E+03
    -27.163  0.2368E-01  0.2560E+03
    -26.967  0.2753E+00  0.2561E+03
    -26.770  0.1487E+01  0.2563E+03
    -26.574  0.5653E+01  0.2575E+03
    -26.378  0.1521E+02  0.2604E+03
    -26.181  0.3382E+02  0.2671E+03
    -25.985  0.7139E+02  0.2811E+03
    -25.788  0.1311E+03  0.3068E+03
    -25.592  0.1982E+03  0.3457E+03
    -25.396  0.2573E+03  0.3962E+03
    -25.199  0.2910E+03  0.4533E+03
    -25.003  0.2871E+03  0.5098E+03
    -24.807  0.2451E+03  0.5579E+03
    -24.610  0.1809E+03  0.5935E+03
    -24.414  0.1175E+03  0.6166E+03
    -24.217  0.6748E+02  0.6299E+03
    -24.021  0.3257E+02  0.6363E+03
    -23.825  0.1272E+02  0.6388E+03
    -23.628  0.4305E+01  0.6397E+03
    -23.432  0.1305E+01  0.6399E+03
    -23.236  0.2565E+00  0.6400E+03
    -23.039  0.2095E-01  0.6400E+03
    -22.843  0.5004E-03  0.6400E+03
    -22.646  0.6687E-03  0.6400E+03
    -22.450  0.5520E-01  0.6400E+03
    -22.254  0.1167E+01  0.6402E+03
    -22.057  0.8690E+01  0.6419E+03
    -21.861  0.3147E+02  0.6481E+03
    -21.664  0.7762E+02  0.6633E+03
    -21.468  0.1613E+03  0.6950E+03
    -21.272  0.2934E+03  0.7525E+03
    -21.075  0.4616E+03  0.8431E+03
    -20.879  0.6069E+03  0.9622E+03
    -20.683  0.6629E+03  0.1092E+04
    -20.486  0.5942E+03  0.1209E+04
    -20.290  0.4382E+03  0.1295E+04
    -20.093  0.2776E+03  0.1350E+04
    -19.897  0.1590E+03  0.1381E+04
    -19.701  0.8128E+02  0.1397E+04
    -19.504  0.3649E+02  0.1405E+04
    -19.308  0.1296E+02  0.1407E+04
    -19.112  0.3659E+01  0.1408E+04
    -18.915  0.9119E+00  0.1408E+04
    -18.719  0.1474E+00  0.1408E+04
    -18.522  0.9359E-02  0.1408E+04
    -18.326  0.1528E-03  0.1408E+04
    -18.130  0.4821E-06  0.1408E+04
    -17.933  0.2558E-09  0.1408E+04
    -17.737  0.2139E-13  0.1408E+04
    -17.540  0.0000E+00  0.1408E+04
    -17.344  0.0000E+00  0.1408E+04
    -17.148  0.0000E+00  0.1408E+04
    -16.951  0.0000E+00  0.1408E+04
    -16.755  0.0000E+00  0.1408E+04
    -16.559  0.0000E+00  0.1408E+04
    -16.362  0.0000E+00  0.1408E+04
    -16.166  0.0000E+00  0.1408E+04
    -15.969  0.0000E+00  0.1408E+04
    -15.773  0.0000E+00  0.1408E+04
    -15.577  0.3016E-16  0.1408E+04
    -15.380  0.1089E-11  0.1408E+04
    -15.184  0.5795E-08  0.1408E+04
    -14.987  0.4837E-05  0.1408E+04
    -14.791  0.6669E-03  0.1408E+04
    -14.595  0.1717E-01  0.1408E+04
    -14.398  0.1099E+00  0.1408E+04
    -14.202  0.3173E+00  0.1408E+04
    -14.006  0.1057E+01  0.1408E+04
    -13.809  0.4479E+01  0.1409E+04
    -13.613  0.1474E+02  0.1412E+04
    -13.416  0.3550E+02  0.1419E+04
    -13.220  0.7337E+02  0.1433E+04
    -13.024  0.1321E+03  0.1459E+04
    -12.827  0.2159E+03  0.1502E+04
    -12.631  0.3199E+03  0.1565E+04
    -12.435  0.4246E+03  0.1648E+04
    -12.238  0.5169E+03  0.1749E+04
    -12.042  0.5892E+03  0.1865E+04
    -11.845  0.6411E+03  0.1991E+04
    -11.649  0.6795E+03  0.2125E+04
    -11.453  0.7007E+03  0.2262E+04
    -11.256  0.7036E+03  0.2400E+04
    -11.060  0.6783E+03  0.2534E+04
    -10.863  0.6162E+03  0.2655E+04
    -10.667  0.5159E+03  0.2756E+04
    -10.471  0.3902E+03  0.2833E+04
    -10.274  0.2662E+03  0.2885E+04
    -10.078  0.1651E+03  0.2918E+04
     -9.882  0.1035E+03  0.2938E+04
     -9.685  0.9355E+02  0.2956E+04
     -9.489  0.1427E+03  0.2984E+04
     -9.292  0.2469E+03  0.3033E+04
     -9.096  0.3800E+03  0.3107E+04
     -8.900  0.5109E+03  0.3208E+04
     -8.703  0.6091E+03  0.3327E+04
     -8.507  0.6561E+03  0.3456E+04
     -8.310  0.6622E+03  0.3586E+04
     -8.114  0.6316E+03  0.3710E+04
     -7.918  0.5665E+03  0.3822E+04
     -7.721  0.4740E+03  0.3915E+04
     -7.525  0.3645E+03  0.3986E+04
     -7.329  0.2532E+03  0.4036E+04
     -7.132  0.1568E+03  0.4067E+04
     -6.936  0.8511E+02  0.4084E+04
     -6.739  0.3941E+02  0.4092E+04
     -6.543  0.1553E+02  0.4095E+04
     -6.347  0.5458E+01  0.4096E+04
     -6.150  0.1291E+01  0.4096E+04
     -5.954  0.1275E+00  0.4096E+04
     -5.758  0.3648E-02  0.4096E+04
     -5.561  0.2332E-04  0.4096E+04
     -5.365  0.2859E-07  0.4096E+04
     -5.168  0.6159E-11  0.4096E+04
     -4.972  0.2045E-15  0.4096E+04
     -4.776  0.0000E+00  0.4096E+04
     -4.579  0.0000E+00  0.4096E+04
     -4.383  0.0000E+00  0.4096E+04
     -4.186  0.0000E+00  0.4096E+04
     -3.990  0.0000E+00  0.4096E+04
     -3.794  0.0000E+00  0.4096E+04
     -3.597  0.0000E+00  0.4096E+04
     -3.401  0.0000E+00  0.4096E+04
     -3.205  0.0000E+00  0.4096E+04
     -3.008  0.0000E+00  0.4096E+04
     -2.812  0.0000E+00  0.4096E+04
     -2.615  0.0000E+00  0.4096E+04
     -2.419  0.0000E+00  0.4096E+04
     -2.223  0.0000E+00  0.4096E+04
     -2.026  0.0000E+00  0.4096E+04
     -1.830  0.0000E+00  0.4096E+04
     -1.634  0.0000E+00  0.4096E+04
     -1.437  0.0000E+00  0.4096E+04
     -1.241  0.0000E+00  0.4096E+04
     -1.044  0.2720E-13  0.4096E+04
     -0.848  0.3451E-09  0.4096E+04
     -0.652  0.7377E-06  0.4096E+04
     -0.455  0.2956E-03  0.4096E+04
     -0.259  0.2561E-01  0.4096E+04
     -0.062  0.5831E+00  0.4096E+04
      0.134  0.4883E+01  0.4097E+04
      0.330  0.2360E+02  0.4102E+04
      0.527  0.8155E+02  0.4118E+04
      0.723  0.2055E+03  0.4158E+04
      0.919  0.3969E+03  0.4236E+04
      1.116  0.6264E+03  0.4359E+04
      1.312  0.8482E+03  0.4526E+04
      1.509  0.1025E+04  0.4727E+04
      1.705  0.1146E+04  0.4952E+04
      1.901  0.1218E+04  0.5191E+04
      2.098  0.1245E+04  0.5436E+04
      2.294  0.1238E+04  0.5679E+04
      2.491  0.1217E+04  0.5918E+04
      2.687  0.1202E+04  0.6154E+04
      2.883  0.1209E+04  0.6392E+04
      3.080  0.1238E+04  0.6635E+04
      3.276  0.1275E+04  0.6885E+04
      3.472  0.1310E+04  0.7143E+04
      3.669  0.1332E+04  0.7404E+04
      3.865  0.1326E+04  0.7665E+04
      4.062  0.1276E+04  0.7915E+04
      4.258  0.1165E+04  0.8144E+04
      4.454  0.9904E+03  0.8339E+04
      4.651  0.7672E+03  0.8490E+04
      4.847  0.5251E+03  0.8593E+04
      5.043  0.3095E+03  0.8654E+04
      5.240  0.1562E+03  0.8684E+04
      5.436  0.6643E+02  0.8697E+04
      5.633  0.2364E+02  0.8702E+04
      5.829  0.7185E+01  0.8704E+04
      6.025  0.1909E+01  0.8704E+04
      6.222  0.4319E+00  0.8704E+04
      6.418  0.5751E-01  0.8704E+04
      6.615  0.2577E-02  0.8704E+04
      6.811  0.1771E-03  0.8704E+04
      7.007  0.1390E-01  0.8704E+04
      7.204  0.2728E+00  0.8704E+04
      7.400  0.1780E+01  0.8704E+04
      7.596  0.7363E+01  0.8706E+04
      7.793  0.2412E+02  0.8711E+04
      7.989  0.6357E+02  0.8723E+04
      8.186  0.1391E+03  0.8750E+04
      8.382  0.2627E+03  0.8802E+04
      8.578  0.4380E+03  0.8888E+04
      8.775  0.6530E+03  0.9016E+04
      8.971  0.9003E+03  0.9193E+04
      9.168  0.1180E+04  0.9425E+04
      9.364  0.1482E+04  0.9716E+04
      9.560  0.1702E+04  0.1005E+05
      9.757  0.1436E+04  0.1033E+05
      9.953  0.5885E+03  0.1045E+05
     10.149  0.7844E+02  0.1046E+05
     10.346  0.2562E+01  0.1046E+05
     10.542  0.1701E-01  0.1046E+05
     10.739  0.2043E-04  0.1046E+05
     10.935  0.4136E-08  0.1046E+05
     11.131  0.1274E-12  0.1046E+05
     11.328  0.0000E+00  0.1046E+05
     11.524  0.0000E+00  0.1046E+05
     11.720  0.0000E+00  0.1046E+05
     11.917  0.0000E+00  0.1046E+05
     12.113  0.0000E+00  0.1046E+05
     12.310  0.0000E+00  0.1046E+05
     12.506  0.0000E+00  0.1046E+05
     12.78793084    -46.46343056  301      6.48012965      1.00000000
    -46.463  0.0000E+00  0.0000E+00
    -46.266  0.0000E+00  0.0000E+00
    -46.068  0.0000E+00  0.0000E+00
    -45.871  0.0000E+00  0.0000E+00
    -45.673  0.0000E+00  0.0000E+00
    -45.476  0.0000E+00  0.0000E+00
    -45.278  0.0000E+00  0.0000E+00
    -45.081  0.0000E+00  0.0000E+00
    -44.883  0.1199E-15  0.2368E-16
    -44.686  0.3200E-11  0.6321E-12
    -44.488  0.1284E-07  0.2537E-08
    -44.291  0.7808E-05  0.1545E-05
    -44.093  0.7488E-03  0.1494E-03
    -43.896  0.1241E-01  0.2600E-02
    -43.698  0.4812E-01  0.1210E-01
    -43.501  0.1094E+00  0.3371E-01
    -43.303  0.2108E+00  0.7534E-01
    -43.106  0.3629E+00  0.1470E+00
    -42.908  0.7347E+00  0.2921E+00
    -42.711  0.1207E+01  0.5305E+00
    -42.513  0.1280E+01  0.7833E+00
    -42.316  0.1305E+01  0.1041E+01
    -42.118  0.1209E+01  0.1280E+01
    -41.921  0.8552E+00  0.1449E+01
    -41.723  0.6343E+00  0.1574E+01
    -41.526  0.3949E+00  0.1652E+01
    -41.328  0.1470E+00  0.1681E+01
    -41.131  0.6778E-01  0.1694E+01
    -40.933  0.4527E-01  0.1703E+01
    -40.736  0.1590E-01  0.1706E+01
    -40.538  0.1250E-02  0.1707E+01
    -40.341  0.1703E-04  0.1707E+01
    -40.143  0.3682E-07  0.1707E+01
    -39.946  0.1211E-10  0.1707E+01
    -39.748  0.5921E-15  0.1707E+01
    -39.551  0.0000E+00  0.1707E+01
    -39.353  0.0000E+00  0.1707E+01
    -39.156  0.0000E+00  0.1707E+01
    -38.958  0.0000E+00  0.1707E+01
    -38.761  0.0000E+00  0.1707E+01
    -38.563  0.0000E+00  0.1707E+01
    -38.366  0.0000E+00  0.1707E+01
    -38.168  0.0000E+00  0.1707E+01
    -37.971  0.0000E+00  0.1707E+01
    -37.773  0.0000E+00  0.1707E+01
    -37.576  0.0000E+00  0.1707E+01
    -37.378  0.0000E+00  0.1707E+01
    -37.181  0.0000E+00  0.1707E+01
    -36.983  0.0000E+00  0.1707E+01
    -36.786  0.0000E+00  0.1707E+01
    -36.588  0.0000E+00  0.1707E+01
    -36.391  0.0000E+00  0.1707E+01
    -36.193  0.0000E+00  0.1707E+01
    -35.996  0.0000E+00  0.1707E+01
    -35.798  0.0000E+00  0.1707E+01
    -35.601  0.0000E+00  0.1707E+01
    -35.403  0.0000E+00  0.1707E+01
    -35.206  0.0000E+00  0.1707E+01
    -35.008  0.0000E+00  0.1707E+01
    -34.811  0.0000E+00  0.1707E+01
    -34.613  0.0000E+00  0.1707E+01
    -34.416  0.0000E+00  0.1707E+01
    -34.218  0.0000E+00  0.1707E+01
    -34.021  0.0000E+00  0.1707E+01
    -33.823  0.0000E+00  0.1707E+01
    -33.626  0.0000E+00  0.1707E+01
    -33.428  0.0000E+00  0.1707E+01
    -33.231  0.0000E+00  0.1707E+01
    -33.033  0.0000E+00  0.1707E+01
    -32.836  0.0000E+00  0.1707E+01
    -32.638  0.0000E+00  0.1707E+01
    -32.441  0.0000E+00  0.1707E+01
    -32.243  0.0000E+00  0.1707E+01
    -32.046  0.0000E+00  0.1707E+01
    -31.848  0.0000E+00  0.1707E+01
    -31.651  0.0000E+00  0.1707E+01
    -31.453  0.0000E+00  0.1707E+01
    -31.256  0.0000E+00  0.1707E+01
    -31.058  0.0000E+00  0.1707E+01
    -30.861  0.0000E+00  0.1707E+01
    -30.663  0.0000E+00  0.1707E+01
    -30.466  0.0000E+00  0.1707E+01
    -30.268  0.0000E+00  0.1707E+01
    -30.071  0.0000E+00  0.1707E+01
    -29.873  0.0000E+00  0.1707E+01
    -29.676  0.0000E+00  0.1707E+01
    -29.478  0.0000E+00  0.1707E+01
    -29.281  0.0000E+00  0.1707E+01
    -29.083  0.0000E+00  0.1707E+01
    -28.886  0.0000E+00  0.1707E+01
    -28.688  0.0000E+00  0.1707E+01
    -28.491  0.0000E+00  0.1707E+01
    -28.293  0.0000E+00  0.1707E+01
    -28.096  0.0000E+00  0.1707E+01
    -27.898  0.0000E+00  0.1707E+01
    -27.700  0.7495E-17  0.1707E+01
    -27.503  0.2607E-12  0.1707E+01
    -27.305  0.1730E-08  0.1707E+01
    -27.108  0.1730E-05  0.1707E+01
    -26.910  0.2725E-03  0.1707E+01
    -26.713  0.7568E-02  0.1708E+01
    -26.515  0.5192E-01  0.1718E+01
    -26.318  0.1585E+00  0.1750E+01
    -26.120  0.2810E+00  0.1805E+01
    -25.923  0.5413E+00  0.1912E+01
    -25.725  0.1056E+01  0.2121E+01
    -25.528  0.1444E+01  0.2406E+01
    -25.330  0.1743E+01  0.2750E+01
    -25.133  0.2098E+01  0.3165E+01
    -24.935  0.2025E+01  0.3565E+01
    -24.738  0.1679E+01  0.3896E+01
    -24.540  0.9474E+00  0.4083E+01
    -24.343  0.4486E+00  0.4172E+01
    -24.145  0.2851E+00  0.4228E+01
    -23.948  0.1570E+00  0.4259E+01
    -23.750  0.3510E-01  0.4266E+01
    -23.553  0.2058E-02  0.4267E+01
    -23.355  0.2480E-04  0.4267E+01
    -23.158  0.5237E-07  0.4267E+01
    -22.960  0.1769E-10  0.4267E+01
    -22.763  0.1874E-09  0.4267E+01
    -22.565  0.3552E-06  0.4267E+01
    -22.368  0.1094E-03  0.4267E+01
    -22.170  0.6045E-02  0.4268E+01
    -21.973  0.7363E-01  0.4282E+01
    -21.775  0.2909E+00  0.4340E+01
    -21.578  0.6408E+00  0.4466E+01
    -21.380  0.1285E+01  0.4720E+01
    -21.183  0.2440E+01  0.5202E+01
    -20.985  0.3794E+01  0.5951E+01
    -20.788  0.4227E+01  0.6786E+01
    -20.590  0.4085E+01  0.7593E+01
    -20.393  0.3527E+01  0.8289E+01
    -20.195  0.2511E+01  0.8785E+01
    -19.998  0.1687E+01  0.9119E+01
    -19.800  0.8663E+00  0.9290E+01
    -19.603  0.3235E+00  0.9354E+01
    -19.405  0.1253E+00  0.9378E+01
    -19.208  0.3733E-01  0.9386E+01
    -19.010  0.4172E-02  0.9387E+01
    -18.813  0.1027E-03  0.9387E+01
    -18.615  0.4318E-06  0.9387E+01
    -18.418  0.2827E-09  0.9387E+01
    -18.220  0.2775E-13  0.9387E+01
    -18.023  0.0000E+00  0.9387E+01
    -17.825  0.0000E+00  0.9387E+01
    -17.628  0.0000E+00  0.9387E+01
    -17.430  0.0000E+00  0.9387E+01
    -17.233  0.0000E+00  0.9387E+01
    -17.035  0.0000E+00  0.9387E+01
    -16.838  0.0000E+00  0.9387E+01
    -16.640  0.0000E+00  0.9387E+01
    -16.443  0.0000E+00  0.9387E+01
    -16.245  0.0000E+00  0.9387E+01
    -16.048  0.0000E+00  0.9387E+01
    -15.850  0.0000E+00  0.9387E+01
    -15.653  0.0000E+00  0.9387E+01
    -15.455  0.7236E-14  0.9387E+01
    -15.258  0.9448E-10  0.9387E+01
    -15.060  0.1841E-06  0.9387E+01
    -14.863  0.5496E-04  0.9387E+01
    -14.665  0.2630E-02  0.9387E+01
    -14.468  0.2166E-01  0.9391E+01
    -14.270  0.3309E-01  0.9398E+01
    -14.073  0.9824E-02  0.9400E+01
    -13.875  0.8293E-02  0.9402E+01
    -13.678  0.5867E-01  0.9413E+01
    -13.480  0.1787E+00  0.9448E+01
    -13.283  0.2899E+00  0.9506E+01
    -13.085  0.5434E+00  0.9613E+01
    -12.888  0.1168E+01  0.9844E+01
    -12.690  0.1957E+01  0.1023E+02
    -12.493  0.2772E+01  0.1078E+02
    -12.295  0.3244E+01  0.1142E+02
    -12.098  0.3776E+01  0.1216E+02
    -11.900  0.4214E+01  0.1300E+02
    -11.703  0.4487E+01  0.1388E+02
    -11.505  0.4700E+01  0.1481E+02
    -11.308  0.4661E+01  0.1573E+02
    -11.110  0.4341E+01  0.1659E+02
    -10.913  0.3981E+01  0.1738E+02
    -10.715  0.3518E+01  0.1807E+02
    -10.518  0.2898E+01  0.1864E+02
    -10.320  0.2152E+01  0.1907E+02
    -10.123  0.1434E+01  0.1935E+02
     -9.925  0.9986E+00  0.1955E+02
     -9.728  0.7333E+00  0.1969E+02
     -9.530  0.8959E+00  0.1987E+02
     -9.333  0.1570E+01  0.2018E+02
     -9.135  0.2313E+01  0.2064E+02
     -8.938  0.3084E+01  0.2125E+02
     -8.740  0.3828E+01  0.2200E+02
     -8.543  0.4380E+01  0.2287E+02
     -8.345  0.4649E+01  0.2378E+02
     -8.148  0.4481E+01  0.2467E+02
     -7.950  0.3852E+01  0.2543E+02
     -7.753  0.3201E+01  0.2606E+02
     -7.555  0.2528E+01  0.2656E+02
     -7.358  0.1784E+01  0.2691E+02
     -7.160  0.1065E+01  0.2712E+02
     -6.963  0.5449E+00  0.2723E+02
     -6.765  0.2726E+00  0.2729E+02
     -6.568  0.9369E-01  0.2730E+02
     -6.370  0.1014E-01  0.2731E+02
     -6.173  0.2313E-03  0.2731E+02
     -5.975  0.9489E-06  0.2731E+02
     -5.777  0.6454E-09  0.2731E+02
     -5.580  0.6897E-13  0.2731E+02
     -5.382  0.0000E+00  0.2731E+02
     -5.185  0.0000E+00  0.2731E+02
     -4.987  0.0000E+00  0.2731E+02
     -4.790  0.0000E+00  0.2731E+02
     -4.592  0.0000E+00  0.2731E+02
     -4.395  0.0000E+00  0.2731E+02
     -4.197  0.0000E+00  0.2731E+02
     -4.000  0.0000E+00  0.2731E+02
     -3.802  0.0000E+00  0.2731E+02
     -3.605  0.0000E+00  0.2731E+02
     -3.407  0.0000E+00  0.2731E+02
     -3.210  0.0000E+00  0.2731E+02
     -3.012  0.0000E+00  0.2731E+02
     -2.815  0.0000E+00  0.2731E+02
     -2.617  0.0000E+00  0.2731E+02
     -2.420  0.0000E+00  0.2731E+02
     -2.222  0.0000E+00  0.2731E+02
     -2.025  0.0000E+00  0.2731E+02
     -1.827  0.0000E+00  0.2731E+02
     -1.630  0.0000E+00  0.2731E+02
     -1.432  0.0000E+00  0.2731E+02
     -1.235  0.0000E+00  0.2731E+02
     -1.037  0.0000E+00  0.2731E+02
     -0.840  0.4122E-16  0.2731E+02
     -0.642  0.1362E-11  0.2731E+02
     -0.445  0.6577E-08  0.2731E+02
     -0.247  0.4912E-05  0.2731E+02
     -0.050  0.6196E-03  0.2731E+02
      0.148  0.1615E-01  0.2731E+02
      0.345  0.1270E+00  0.2734E+02
      0.543  0.4903E+00  0.2743E+02
      0.740  0.1315E+01  0.2769E+02
      0.938  0.2748E+01  0.2823E+02
      1.135  0.4405E+01  0.2910E+02
      1.333  0.5800E+01  0.3025E+02
      1.530  0.6905E+01  0.3161E+02
      1.728  0.7713E+01  0.3314E+02
      1.925  0.8156E+01  0.3475E+02
      2.123  0.8254E+01  0.3638E+02
      2.320  0.8163E+01  0.3799E+02
      2.518  0.8035E+01  0.3958E+02
      2.715  0.7953E+01  0.4115E+02
      2.913  0.8021E+01  0.4273E+02
      3.110  0.8221E+01  0.4436E+02
      3.308  0.8480E+01  0.4603E+02
      3.505  0.8654E+01  0.4774E+02
      3.703  0.8697E+01  0.4946E+02
      3.900  0.8561E+01  0.5115E+02
      4.098  0.8100E+01  0.5275E+02
      4.295  0.7377E+01  0.5421E+02
      4.493  0.6437E+01  0.5548E+02
      4.690  0.5089E+01  0.5648E+02
      4.888  0.3506E+01  0.5717E+02
      5.085  0.2210E+01  0.5761E+02
      5.283  0.1281E+01  0.5786E+02
      5.480  0.6071E+00  0.5798E+02
      5.678  0.1939E+00  0.5802E+02
      5.875  0.2519E-01  0.5803E+02
      6.073  0.8120E-03  0.5803E+02
      6.270  0.5006E-05  0.5803E+02
      6.468  0.5188E-08  0.5803E+02
      6.665  0.2992E-10  0.5803E+02
      6.863  0.7332E-07  0.5803E+02
      7.060  0.2821E-04  0.5803E+02
      7.258  0.1734E-02  0.5803E+02
      7.455  0.1911E-01  0.5803E+02
      7.653  0.6302E-01  0.5804E+02
      7.850  0.2029E+00  0.5808E+02
      8.048  0.5744E+00  0.5820E+02
      8.245  0.1262E+01  0.5845E+02
      8.443  0.2177E+01  0.5888E+02
      8.640  0.3401E+01  0.5955E+02
      8.838  0.4817E+01  0.6050E+02
      9.035  0.6299E+01  0.6174E+02
      9.233  0.8009E+01  0.6332E+02
      9.430  0.9548E+01  0.6521E+02
      9.628  0.1022E+02  0.6723E+02
      9.825  0.8185E+01  0.6885E+02
     10.023  0.3763E+01  0.6959E+02
     10.220  0.7988E+00  0.6975E+02
     10.418  0.6797E-01  0.6976E+02
     10.615  0.1941E-02  0.6976E+02
     10.813  0.1366E-04  0.6976E+02
     11.010  0.1828E-07  0.6976E+02
     11.208  0.4047E-11  0.6976E+02
     11.405  0.1349E-15  0.6976E+02
     11.603  0.0000E+00  0.6976E+02
     11.800  0.0000E+00  0.6976E+02
     11.998  0.0000E+00  0.6976E+02
     12.195  0.0000E+00  0.6976E+02
     12.393  0.0000E+00  0.6976E+02
     12.590  0.0000E+00  0.6976E+02
     12.788  0.0000E+00  0.6976E+02
