 1536 1536  150    1
  0.1158988E+02  0.2647214E-08  0.2647214E-08  0.2540341E-08  0.2000000E-14
   1500.00000000000     
  CAR 
 unknown system                          
   8704      1   5232
 
  0.0000000E+00  0.0000000E+00  0.0000000E+00  0.1000000E+01
    1      -43.770187   1.000000
    2      -43.547907   1.000000
    3      -43.418129   1.000000
    4      -43.414379   1.000000
    5      -43.412849   1.000000
    6      -43.272209   1.000000
    7      -43.240833   1.000000
    8      -43.187959   1.000000
    9      -43.125440   1.000000
   10      -43.084417   1.000000
   11      -43.081584   1.000000
   12      -43.074316   1.000000
   13      -43.049324   1.000000
   14      -43.045598   1.000000
   15      -42.997565   1.000000
   16      -42.957274   1.000000
   17      -42.947641   1.000000
   18      -42.906455   1.000000
   19      -42.884549   1.000000
   20      -42.873878   1.000000
   21      -42.873761   1.000000
   22      -42.873511   1.000000
   23      -42.868997   1.000000
   24      -42.866682   1.000000
   25      -42.848700   1.000000
   26      -42.845115   1.000000
   27      -42.838899   1.000000
   28      -42.815371   1.000000
   29      -42.804578   1.000000
   30      -42.800364   1.000000
   31      -42.796501   1.000000
   32      -42.780377   1.000000
   33      -42.774273   1.000000
   34      -42.770840   1.000000
   35      -42.753302   1.000000
   36      -42.745688   1.000000
   37      -42.744937   1.000000
   38      -42.744671   1.000000
   39      -42.739360   1.000000
   40      -42.736028   1.000000
   41      -42.719916   1.000000
   42      -42.718219   1.000000
   43      -42.705179   1.000000
   44      -42.704502   1.000000
   45      -42.695043   1.000000
   46      -42.672368   1.000000
   47      -42.666301   1.000000
   48      -42.622858   1.000000
   49      -42.622112   1.000000
   50      -42.615288   1.000000
   51      -42.592012   1.000000
   52      -42.587933   1.000000
   53      -42.580642   1.000000
   54      -42.575363   1.000000
   55      -42.553466   1.000000
   56      -42.544351   1.000000
   57      -42.530174   1.000000
   58      -42.526197   1.000000
   59      -42.525945   1.000000
   60      -42.488231   1.000000
   61      -42.479764   1.000000
   62      -42.475974   1.000000
   63      -42.467150   1.000000
   64      -42.451214   1.000000
   65      -42.447304   1.000000
   66      -42.443372   1.000000
   67      -42.417083   1.000000
   68      -42.405179   1.000000
   69      -42.403815   1.000000
   70      -42.389569   1.000000
   71      -42.376755   1.000000
   72      -42.370084   1.000000
   73      -42.349661   1.000000
   74      -42.347513   1.000000
   75      -42.346477   1.000000
   76      -42.342540   1.000000
   77      -42.341657   1.000000
   78      -42.334506   1.000000
   79      -42.324248   1.000000
   80      -42.311356   1.000000
   81      -42.296051   1.000000
   82      -42.293063   1.000000
   83      -42.292523   1.000000
   84      -42.285729   1.000000
   85      -42.274942   1.000000
   86      -42.274676   1.000000
   87      -42.243775   1.000000
   88      -42.228613   1.000000
   89      -42.197752   1.000000
   90      -42.191799   1.000000
   91      -42.179223   1.000000
   92      -42.179016   1.000000
   93      -42.175614   1.000000
   94      -42.157981   1.000000
   95      -42.140375   1.000000
   96      -42.139009   1.000000
   97      -42.127179   1.000000
   98      -42.119002   1.000000
   99      -42.109248   1.000000
  100      -42.105733   1.000000
  101      -42.104354   1.000000
  102      -42.101897   1.000000
  103      -42.067181   1.000000
  104      -42.045861   1.000000
  105      -42.043488   1.000000
  106      -42.011380   1.000000
  107      -41.996891   1.000000
  108      -41.938136   1.000000
  109      -41.937269   1.000000
  110      -41.904876   1.000000
  111      -41.882190   1.000000
  112      -41.839759   1.000000
  113      -41.817938   1.000000
  114      -41.810935   1.000000
  115      -41.808285   1.000000
  116      -41.788510   1.000000
  117      -41.770048   1.000000
  118      -41.754980   1.000000
  119      -41.713953   1.000000
  120      -41.713127   1.000000
  121      -41.709547   1.000000
  122      -41.703470   1.000000
  123      -41.674809   1.000000
  124      -41.641482   1.000000
  125      -41.529532   1.000000
  126      -41.451496   1.000000
  127      -41.278103   1.000000
  128      -41.030144   1.000000
  129      -26.535159   1.000000
  130      -26.368686   1.000000
  131      -26.321261   1.000000
  132      -26.260743   1.000000
  133      -26.255093   1.000000
  134      -26.208359   1.000000
  135      -26.192024   1.000000
  136      -26.024091   1.000000
  137      -26.007804   1.000000
  138      -25.993326   1.000000
  139      -25.979815   1.000000
  140      -25.947487   1.000000
  141      -25.923690   1.000000
  142      -25.917155   1.000000
  143      -25.913047   1.000000
  144      -25.910026   1.000000
  145      -25.892351   1.000000
  146      -25.857636   1.000000
  147      -25.854388   1.000000
  148      -25.837277   1.000000
  149      -25.804070   1.000000
  150      -25.790973   1.000000
  151      -25.773768   1.000000
  152      -25.762100   1.000000
  153      -25.751472   1.000000
  154      -25.748587   1.000000
  155      -25.737681   1.000000
  156      -25.735712   1.000000
  157      -25.733785   1.000000
  158      -25.724448   1.000000
  159      -25.716409   1.000000
  160      -25.713575   1.000000
  161      -25.699165   1.000000
  162      -25.693225   1.000000
  163      -25.684011   1.000000
  164      -25.676205   1.000000
  165      -25.665191   1.000000
  166      -25.662571   1.000000
  167      -25.658809   1.000000
  168      -25.652418   1.000000
  169      -25.651789   1.000000
  170      -25.649961   1.000000
  171      -25.640328   1.000000
  172      -25.627812   1.000000
  173      -25.581605   1.000000
  174      -25.563868   1.000000
  175      -25.561043   1.000000
  176      -25.555055   1.000000
  177      -25.549354   1.000000
  178      -25.539357   1.000000
  179      -25.539279   1.000000
  180      -25.529061   1.000000
  181      -25.528057   1.000000
  182      -25.525038   1.000000
  183      -25.512574   1.000000
  184      -25.495183   1.000000
  185      -25.483748   1.000000
  186      -25.477027   1.000000
  187      -25.468339   1.000000
  188      -25.452458   1.000000
  189      -25.437563   1.000000
  190      -25.430940   1.000000
  191      -25.429835   1.000000
  192      -25.417322   1.000000
  193      -25.417271   1.000000
  194      -25.415594   1.000000
  195      -25.413995   1.000000
  196      -25.411016   1.000000
  197      -25.393772   1.000000
  198      -25.369361   1.000000
  199      -25.366560   1.000000
  200      -25.359734   1.000000
  201      -25.325037   1.000000
  202      -25.322863   1.000000
  203      -25.322839   1.000000
  204      -25.322405   1.000000
  205      -25.320941   1.000000
  206      -25.314415   1.000000
  207      -25.312498   1.000000
  208      -25.312457   1.000000
  209      -25.312100   1.000000
  210      -25.311648   1.000000
  211      -25.289358   1.000000
  212      -25.288381   1.000000
  213      -25.280690   1.000000
  214      -25.269308   1.000000
  215      -25.265536   1.000000
  216      -25.247194   1.000000
  217      -25.246505   1.000000
  218      -25.245326   1.000000
  219      -25.241934   1.000000
  220      -25.235429   1.000000
  221      -25.235423   1.000000
  222      -25.234673   1.000000
  223      -25.217600   1.000000
  224      -25.215616   1.000000
  225      -25.203799   1.000000
  226      -25.203539   1.000000
  227      -25.202157   1.000000
  228      -25.194367   1.000000
  229      -25.193237   1.000000
  230      -25.186519   1.000000
  231      -25.184489   1.000000
  232      -25.171364   1.000000
  233      -25.168153   1.000000
  234      -25.161794   1.000000
  235      -25.158857   1.000000
  236      -25.143595   1.000000
  237      -25.138328   1.000000
  238      -25.137041   1.000000
  239      -25.132659   1.000000
  240      -25.131990   1.000000
  241      -25.130128   1.000000
  242      -25.116132   1.000000
  243      -25.103221   1.000000
  244      -25.098722   1.000000
  245      -25.092647   1.000000
  246      -25.090712   1.000000
  247      -25.090430   1.000000
  248      -25.076782   1.000000
  249      -25.068375   1.000000
  250      -25.067637   1.000000
  251      -25.066090   1.000000
  252      -25.065051   1.000000
  253      -25.052842   1.000000
  254      -25.048023   1.000000
  255      -25.035994   1.000000
  256      -25.028525   1.000000
  257      -25.027035   1.000000
  258      -25.026476   1.000000
  259      -25.021044   1.000000
  260      -25.020378   1.000000
  261      -24.985234   1.000000
  262      -24.972627   1.000000
  263      -24.968813   1.000000
  264      -24.963099   1.000000
  265      -24.955549   1.000000
  266      -24.952390   1.000000
  267      -24.930506   1.000000
  268      -24.924829   1.000000
  269      -24.921634   1.000000
  270      -24.910990   1.000000
  271      -24.906920   1.000000
  272      -24.895098   1.000000
  273      -24.875491   1.000000
  274      -24.874531   1.000000
  275      -24.873944   1.000000
  276      -24.871542   1.000000
  277      -24.867050   1.000000
  278      -24.861865   1.000000
  279      -24.859021   1.000000
  280      -24.854687   1.000000
  281      -24.853354   1.000000
  282      -24.847182   1.000000
  283      -24.836752   1.000000
  284      -24.823002   1.000000
  285      -24.822674   1.000000
  286      -24.815107   1.000000
  287      -24.809671   1.000000
  288      -24.807583   1.000000
  289      -24.800431   1.000000
  290      -24.792318   1.000000
  291      -24.792094   1.000000
  292      -24.782828   1.000000
  293      -24.770184   1.000000
  294      -24.766526   1.000000
  295      -24.764611   1.000000
  296      -24.758322   1.000000
  297      -24.751081   1.000000
  298      -24.744268   1.000000
  299      -24.732952   1.000000
  300      -24.728835   1.000000
  301      -24.725648   1.000000
  302      -24.695003   1.000000
  303      -24.672491   1.000000
  304      -24.656528   1.000000
  305      -24.635864   1.000000
  306      -24.566824   1.000000
  307      -24.554759   1.000000
  308      -24.510658   1.000000
  309      -24.509381   1.000000
  310      -24.492134   1.000000
  311      -24.458454   1.000000
  312      -24.455833   1.000000
  313      -24.364770   1.000000
  314      -24.327912   1.000000
  315      -24.307907   1.000000
  316      -24.205508   1.000000
  317      -24.205380   1.000000
  318      -24.150176   1.000000
  319      -24.106435   1.000000
  320      -24.037358   1.000000
  321      -21.934884   1.000000
  322      -21.888665   1.000000
  323      -21.855581   1.000000
  324      -21.766813   1.000000
  325      -21.763168   1.000000
  326      -21.730051   1.000000
  327      -21.726052   1.000000
  328      -21.709965   1.000000
  329      -21.689578   1.000000
  330      -21.639287   1.000000
  331      -21.616101   1.000000
  332      -21.614957   1.000000
  333      -21.577182   1.000000
  334      -21.559857   1.000000
  335      -21.542285   1.000000
  336      -21.526432   1.000000
  337      -21.519084   1.000000
  338      -21.504592   1.000000
  339      -21.489433   1.000000
  340      -21.480583   1.000000
  341      -21.456076   1.000000
  342      -21.438228   1.000000
  343      -21.432768   1.000000
  344      -21.428203   1.000000
  345      -21.421085   1.000000
  346      -21.419005   1.000000
  347      -21.416796   1.000000
  348      -21.405919   1.000000
  349      -21.405520   1.000000
  350      -21.396319   1.000000
  351      -21.375978   1.000000
  352      -21.374842   1.000000
  353      -21.360626   1.000000
  354      -21.358068   1.000000
  355      -21.357182   1.000000
  356      -21.355362   1.000000
  357      -21.345372   1.000000
  358      -21.323550   1.000000
  359      -21.307182   1.000000
  360      -21.306798   1.000000
  361      -21.297196   1.000000
  362      -21.295650   1.000000
  363      -21.281638   1.000000
  364      -21.281342   1.000000
  365      -21.275885   1.000000
  366      -21.274351   1.000000
  367      -21.260392   1.000000
  368      -21.260235   1.000000
  369      -21.250012   1.000000
  370      -21.243916   1.000000
  371      -21.236130   1.000000
  372      -21.230485   1.000000
  373      -21.227064   1.000000
  374      -21.223634   1.000000
  375      -21.219067   1.000000
  376      -21.217512   1.000000
  377      -21.208947   1.000000
  378      -21.205394   1.000000
  379      -21.198808   1.000000
  380      -21.195490   1.000000
  381      -21.187668   1.000000
  382      -21.183893   1.000000
  383      -21.180655   1.000000
  384      -21.176930   1.000000
  385      -21.173273   1.000000
  386      -21.169523   1.000000
  387      -21.169095   1.000000
  388      -21.164959   1.000000
  389      -21.161079   1.000000
  390      -21.159250   1.000000
  391      -21.159181   1.000000
  392      -21.157739   1.000000
  393      -21.153301   1.000000
  394      -21.152879   1.000000
  395      -21.137724   1.000000
  396      -21.135475   1.000000
  397      -21.134366   1.000000
  398      -21.133101   1.000000
  399      -21.132862   1.000000
  400      -21.132338   1.000000
  401      -21.130969   1.000000
  402      -21.113116   1.000000
  403      -21.112897   1.000000
  404      -21.108896   1.000000
  405      -21.106316   1.000000
  406      -21.101655   1.000000
  407      -21.099657   1.000000
  408      -21.097529   1.000000
  409      -21.091712   1.000000
  410      -21.077132   1.000000
  411      -21.075244   1.000000
  412      -21.069428   1.000000
  413      -21.067616   1.000000
  414      -21.067499   1.000000
  415      -21.065938   1.000000
  416      -21.063407   1.000000
  417      -21.062708   1.000000
  418      -21.061705   1.000000
  419      -21.059282   1.000000
  420      -21.057977   1.000000
  421      -21.057896   1.000000
  422      -21.057229   1.000000
  423      -21.052431   1.000000
  424      -21.040949   1.000000
  425      -21.040866   1.000000
  426      -21.038863   1.000000
  427      -21.035234   1.000000
  428      -21.032359   1.000000
  429      -21.031792   1.000000
  430      -21.030913   1.000000
  431      -21.026832   1.000000
  432      -21.022371   1.000000
  433      -21.021906   1.000000
  434      -21.019158   1.000000
  435      -21.013490   1.000000
  436      -21.010912   1.000000
  437      -21.009815   1.000000
  438      -21.008863   1.000000
  439      -21.006068   1.000000
  440      -21.005850   1.000000
  441      -21.004105   1.000000
  442      -20.997703   1.000000
  443      -20.996734   1.000000
  444      -20.996066   1.000000
  445      -20.992555   1.000000
  446      -20.988143   1.000000
  447      -20.986950   1.000000
  448      -20.986532   1.000000
  449      -20.977252   1.000000
  450      -20.974890   1.000000
  451      -20.969567   1.000000
  452      -20.968292   1.000000
  453      -20.962139   1.000000
  454      -20.961634   1.000000
  455      -20.958988   1.000000
  456      -20.958043   1.000000
  457      -20.957552   1.000000
  458      -20.955241   1.000000
  459      -20.955030   1.000000
  460      -20.954658   1.000000
  461      -20.953626   1.000000
  462      -20.951244   1.000000
  463      -20.950378   1.000000
  464      -20.947836   1.000000
  465      -20.946684   1.000000
  466      -20.941284   1.000000
  467      -20.932418   1.000000
  468      -20.931969   1.000000
  469      -20.930046   1.000000
  470      -20.926809   1.000000
  471      -20.919400   1.000000
  472      -20.918113   1.000000
  473      -20.917145   1.000000
  474      -20.916718   1.000000
  475      -20.898227   1.000000
  476      -20.892231   1.000000
  477      -20.888924   1.000000
  478      -20.882078   1.000000
  479      -20.881649   1.000000
  480      -20.881154   1.000000
  481      -20.874747   1.000000
  482      -20.871266   1.000000
  483      -20.868531   1.000000
  484      -20.868035   1.000000
  485      -20.866983   1.000000
  486      -20.864165   1.000000
  487      -20.863350   1.000000
  488      -20.859169   1.000000
  489      -20.855541   1.000000
  490      -20.853004   1.000000
  491      -20.850936   1.000000
  492      -20.850254   1.000000
  493      -20.849932   1.000000
  494      -20.846785   1.000000
  495      -20.846244   1.000000
  496      -20.839654   1.000000
  497      -20.839615   1.000000
  498      -20.833206   1.000000
  499      -20.831892   1.000000
  500      -20.828701   1.000000
  501      -20.814254   1.000000
  502      -20.810861   1.000000
  503      -20.809275   1.000000
  504      -20.805558   1.000000
  505      -20.802845   1.000000
  506      -20.799616   1.000000
  507      -20.799317   1.000000
  508      -20.797612   1.000000
  509      -20.793575   1.000000
  510      -20.789713   1.000000
  511      -20.788985   1.000000
  512      -20.787589   1.000000
  513      -20.783665   1.000000
  514      -20.765739   1.000000
  515      -20.764007   1.000000
  516      -20.758510   1.000000
  517      -20.757607   1.000000
  518      -20.755510   1.000000
  519      -20.754113   1.000000
  520      -20.753060   1.000000
  521      -20.745732   1.000000
  522      -20.745650   1.000000
  523      -20.736849   1.000000
  524      -20.734769   1.000000
  525      -20.734026   1.000000
  526      -20.732995   1.000000
  527      -20.731946   1.000000
  528      -20.727739   1.000000
  529      -20.723451   1.000000
  530      -20.714130   1.000000
  531      -20.711703   1.000000
  532      -20.707768   1.000000
  533      -20.707594   1.000000
  534      -20.705976   1.000000
  535      -20.702501   1.000000
  536      -20.701771   1.000000
  537      -20.697689   1.000000
  538      -20.694340   1.000000
  539      -20.691521   1.000000
  540      -20.684073   1.000000
  541      -20.683458   1.000000
  542      -20.682175   1.000000
  543      -20.682066   1.000000
  544      -20.677815   1.000000
  545      -20.675920   1.000000
  546      -20.674790   1.000000
  547      -20.671276   1.000000
  548      -20.670068   1.000000
  549      -20.667453   1.000000
  550      -20.660417   1.000000
  551      -20.657419   1.000000
  552      -20.656891   1.000000
  553      -20.651223   1.000000
  554      -20.649281   1.000000
  555      -20.645269   1.000000
  556      -20.637371   1.000000
  557      -20.633641   1.000000
  558      -20.630357   1.000000
  559      -20.628498   1.000000
  560      -20.623287   1.000000
  561      -20.613307   1.000000
  562      -20.610293   1.000000
  563      -20.609653   1.000000
  564      -20.608263   1.000000
  565      -20.604933   1.000000
  566      -20.602084   1.000000
  567      -20.600696   1.000000
  568      -20.596922   1.000000
  569      -20.590862   1.000000
  570      -20.585651   1.000000
  571      -20.582622   1.000000
  572      -20.582023   1.000000
  573      -20.580165   1.000000
  574      -20.576743   1.000000
  575      -20.576508   1.000000
  576      -20.574495   1.000000
  577      -20.573671   1.000000
  578      -20.567753   1.000000
  579      -20.567442   1.000000
  580      -20.564208   1.000000
  581      -20.562993   1.000000
  582      -20.560865   1.000000
  583      -20.559045   1.000000
  584      -20.552218   1.000000
  585      -20.552068   1.000000
  586      -20.548023   1.000000
  587      -20.546171   1.000000
  588      -20.545171   1.000000
  589      -20.543919   1.000000
  590      -20.525278   1.000000
  591      -20.524207   1.000000
  592      -20.522580   1.000000
  593      -20.522061   1.000000
  594      -20.521556   1.000000
  595      -20.516479   1.000000
  596      -20.514389   1.000000
  597      -20.511962   1.000000
  598      -20.507071   1.000000
  599      -20.506588   1.000000
  600      -20.500960   1.000000
  601      -20.499396   1.000000
  602      -20.493093   1.000000
  603      -20.490475   1.000000
  604      -20.490383   1.000000
  605      -20.488849   1.000000
  606      -20.487056   1.000000
  607      -20.484812   1.000000
  608      -20.483012   1.000000
  609      -20.481714   1.000000
  610      -20.477725   1.000000
  611      -20.469558   1.000000
  612      -20.467427   1.000000
  613      -20.458871   1.000000
  614      -20.443359   1.000000
  615      -20.441681   1.000000
  616      -20.433002   1.000000
  617      -20.432660   1.000000
  618      -20.430200   1.000000
  619      -20.429915   1.000000
  620      -20.424343   1.000000
  621      -20.422413   1.000000
  622      -20.419980   1.000000
  623      -20.418875   1.000000
  624      -20.411113   1.000000
  625      -20.409154   1.000000
  626      -20.408365   1.000000
  627      -20.408263   1.000000
  628      -20.385033   1.000000
  629      -20.384263   1.000000
  630      -20.383768   1.000000
  631      -20.382959   1.000000
  632      -20.376690   1.000000
  633      -20.364983   1.000000
  634      -20.351307   1.000000
  635      -20.349414   1.000000
  636      -20.339240   1.000000
  637      -20.338059   1.000000
  638      -20.336528   1.000000
  639      -20.333801   1.000000
  640      -20.332489   1.000000
  641      -20.328621   1.000000
  642      -20.325100   1.000000
  643      -20.315024   1.000000
  644      -20.310164   1.000000
  645      -20.288550   1.000000
  646      -20.286686   1.000000
  647      -20.285126   1.000000
  648      -20.283640   1.000000
  649      -20.280443   1.000000
  650      -20.277480   1.000000
  651      -20.277429   1.000000
  652      -20.247022   1.000000
  653      -20.229732   1.000000
  654      -20.220794   1.000000
  655      -20.218346   1.000000
  656      -20.214426   1.000000
  657      -20.213972   1.000000
  658      -20.208041   1.000000
  659      -20.204600   1.000000
  660      -20.194757   1.000000
  661      -20.193150   1.000000
  662      -20.187287   1.000000
  663      -20.186305   1.000000
  664      -20.163693   1.000000
  665      -20.163635   1.000000
  666      -20.161361   1.000000
  667      -20.160417   1.000000
  668      -20.156685   1.000000
  669      -20.150667   1.000000
  670      -20.148314   1.000000
  671      -20.144793   1.000000
  672      -20.138210   1.000000
  673      -20.135275   1.000000
  674      -20.124564   1.000000
  675      -20.122543   1.000000
  676      -20.121891   1.000000
  677      -20.113349   1.000000
  678      -20.101958   1.000000
  679      -20.084910   1.000000
  680      -20.075544   1.000000
  681      -20.074001   1.000000
  682      -20.065518   1.000000
  683      -20.034090   1.000000
  684      -20.030278   1.000000
  685      -20.019045   1.000000
  686      -20.004971   1.000000
  687      -20.004491   1.000000
  688      -19.997750   1.000000
  689      -19.978445   1.000000
  690      -19.978313   1.000000
  691      -19.971218   1.000000
  692      -19.943702   1.000000
  693      -19.930615   1.000000
  694      -19.912951   1.000000
  695      -19.905239   1.000000
  696      -19.897259   1.000000
  697      -19.881663   1.000000
  698      -19.833096   1.000000
  699      -19.827187   1.000000
  700      -19.793832   1.000000
  701      -19.658141   1.000000
  702      -19.645728   1.000000
  703      -19.588925   1.000000
  704      -19.429997   1.000000
  705      -14.417252   1.000000
  706      -13.691563   1.000000
  707      -13.576325   1.000000
  708      -13.478610   1.000000
  709      -13.429956   1.000000
  710      -13.416249   1.000000
  711      -13.407445   1.000000
  712      -13.405597   1.000000
  713      -13.311556   1.000000
  714      -13.192362   1.000000
  715      -13.148975   1.000000
  716      -13.111968   1.000000
  717      -13.102454   1.000000
  718      -13.086295   1.000000
  719      -13.078191   1.000000
  720      -13.069400   1.000000
  721      -13.041177   1.000000
  722      -13.037875   1.000000
  723      -13.019096   1.000000
  724      -13.001004   1.000000
  725      -12.992519   1.000000
  726      -12.991383   1.000000
  727      -12.988936   1.000000
  728      -12.981677   1.000000
  729      -12.960988   1.000000
  730      -12.958212   1.000000
  731      -12.952506   1.000000
  732      -12.940543   1.000000
  733      -12.931928   1.000000
  734      -12.923178   1.000000
  735      -12.907303   1.000000
  736      -12.889510   1.000000
  737      -12.866844   1.000000
  738      -12.858292   1.000000
  739      -12.845029   1.000000
  740      -12.844327   1.000000
  741      -12.839940   1.000000
  742      -12.834635   1.000000
  743      -12.828003   1.000000
  744      -12.813601   1.000000
  745      -12.809381   1.000000
  746      -12.807209   1.000000
  747      -12.806125   1.000000
  748      -12.803955   1.000000
  749      -12.792778   1.000000
  750      -12.775333   1.000000
  751      -12.774426   1.000000
  752      -12.750211   1.000000
  753      -12.746693   1.000000
  754      -12.738578   1.000000
  755      -12.733275   1.000000
  756      -12.728428   1.000000
  757      -12.719175   1.000000
  758      -12.713007   1.000000
  759      -12.710816   1.000000
  760      -12.699946   1.000000
  761      -12.699106   1.000000
  762      -12.690033   1.000000
  763      -12.686845   1.000000
  764      -12.682893   1.000000
  765      -12.680977   1.000000
  766      -12.675669   1.000000
  767      -12.674839   1.000000
  768      -12.666303   1.000000
  769      -12.664952   1.000000
  770      -12.662416   1.000000
  771      -12.653279   1.000000
  772      -12.650294   1.000000
  773      -12.647255   1.000000
  774      -12.643735   1.000000
  775      -12.640787   1.000000
  776      -12.631479   1.000000
  777      -12.627165   1.000000
  778      -12.624259   1.000000
  779      -12.620344   1.000000
  780      -12.615622   1.000000
  781      -12.614765   1.000000
  782      -12.607087   1.000000
  783      -12.598374   1.000000
  784      -12.595371   1.000000
  785      -12.594006   1.000000
  786      -12.585243   1.000000
  787      -12.578471   1.000000
  788      -12.577296   1.000000
  789      -12.574335   1.000000
  790      -12.569267   1.000000
  791      -12.561713   1.000000
  792      -12.559285   1.000000
  793      -12.551838   1.000000
  794      -12.547419   1.000000
  795      -12.543700   1.000000
  796      -12.540014   1.000000
  797      -12.534795   1.000000
  798      -12.531857   1.000000
  799      -12.529025   1.000000
  800      -12.526318   1.000000
  801      -12.521428   1.000000
  802      -12.517878   1.000000
  803      -12.514405   1.000000
  804      -12.509469   1.000000
  805      -12.502725   1.000000
  806      -12.500772   1.000000
  807      -12.497682   1.000000
  808      -12.496613   1.000000
  809      -12.491966   1.000000
  810      -12.490204   1.000000
  811      -12.486268   1.000000
  812      -12.482639   1.000000
  813      -12.475962   1.000000
  814      -12.472566   1.000000
  815      -12.469123   1.000000
  816      -12.462979   1.000000
  817      -12.459561   1.000000
  818      -12.456514   1.000000
  819      -12.453724   1.000000
  820      -12.448389   1.000000
  821      -12.445115   1.000000
  822      -12.438198   1.000000
  823      -12.433103   1.000000
  824      -12.427181   1.000000
  825      -12.420289   1.000000
  826      -12.414066   1.000000
  827      -12.412645   1.000000
  828      -12.404423   1.000000
  829      -12.397332   1.000000
  830      -12.393946   1.000000
  831      -12.391671   1.000000
  832      -12.390843   1.000000
  833      -12.386566   1.000000
  834      -12.381873   1.000000
  835      -12.375108   1.000000
  836      -12.363001   1.000000
  837      -12.360096   1.000000
  838      -12.355883   1.000000
  839      -12.353741   1.000000
  840      -12.349869   1.000000
  841      -12.345454   1.000000
  842      -12.343487   1.000000
  843      -12.340329   1.000000
  844      -12.334867   1.000000
  845      -12.331714   1.000000
  846      -12.327894   1.000000
  847      -12.326246   1.000000
  848      -12.320121   1.000000
  849      -12.318911   1.000000
  850      -12.312449   1.000000
  851      -12.308730   1.000000
  852      -12.304118   1.000000
  853      -12.301482   1.000000
  854      -12.297447   1.000000
  855      -12.290578   1.000000
  856      -12.288992   1.000000
  857      -12.280935   1.000000
  858      -12.279264   1.000000
  859      -12.276985   1.000000
  860      -12.274672   1.000000
  861      -12.270145   1.000000
  862      -12.262160   1.000000
  863      -12.260188   1.000000
  864      -12.257877   1.000000
  865      -12.249743   1.000000
  866      -12.248131   1.000000
  867      -12.244327   1.000000
  868      -12.241760   1.000000
  869      -12.239036   1.000000
  870      -12.235574   1.000000
  871      -12.231288   1.000000
  872      -12.226673   1.000000
  873      -12.221049   1.000000
  874      -12.216583   1.000000
  875      -12.214334   1.000000
  876      -12.210813   1.000000
  877      -12.206959   1.000000
  878      -12.202932   1.000000
  879      -12.198062   1.000000
  880      -12.196924   1.000000
  881      -12.196166   1.000000
  882      -12.188801   1.000000
  883      -12.185931   1.000000
  884      -12.183292   1.000000
  885      -12.179421   1.000000
  886      -12.177849   1.000000
  887      -12.175427   1.000000
  888      -12.171645   1.000000
  889      -12.170157   1.000000
  890      -12.167485   1.000000
  891      -12.165711   1.000000
  892      -12.164497   1.000000
  893      -12.158443   1.000000
  894      -12.152829   1.000000
  895      -12.146576   1.000000
  896      -12.144706   1.000000
  897      -12.143536   1.000000
  898      -12.141273   1.000000
  899      -12.137483   1.000000
  900      -12.135169   1.000000
  901      -12.133378   1.000000