       N       E                     dE             d eps       ncg     rms          rms(c)
DAV:   1     0.231687103104E+06    0.23169E+06   -0.28806E+06 10848   0.263E+03
DAV:   2     0.802477913282E+05   -0.15144E+06   -0.13976E+06 11360   0.821E+02
DAV:   3     0.211677678243E+05   -0.59080E+05   -0.52974E+05 11056   0.383E+02
DAV:   4    -0.339757569887E+04   -0.24565E+05   -0.22824E+05 13984   0.227E+02
DAV:   5    -0.114246710296E+05   -0.80271E+04   -0.76242E+04 20288   0.148E+02    0.353E+02
DAV:   6    -0.104493537128E+05    0.97532E+03   -0.12475E+04 19584   0.690E+01    0.146E+02
DAV:   7    -0.106481390883E+05   -0.19879E+03   -0.32206E+03 20448   0.360E+01    0.714E+01
DAV:   8    -0.107820892990E+05   -0.13395E+03   -0.27397E+03 20240   0.303E+01    0.886E+01
DAV:   9    -0.106692785882E+05    0.11281E+03   -0.81245E+02 19248   0.185E+01    0.198E+01
DAV:  10    -0.106852155409E+05   -0.15937E+02   -0.14327E+02 20896   0.101E+01    0.244E+01
DAV:  11    -0.106861763862E+05   -0.96085E+00   -0.62242E+01 20928   0.495E+00    0.108E+01
DAV:  12    -0.106862060070E+05   -0.29621E-01   -0.21663E+01 20928   0.371E+00    0.958E+00
DAV:  13    -0.106868125079E+05   -0.60650E+00   -0.87614E+00 20528   0.209E+00    0.685E+00
DAV:  14    -0.106867029432E+05    0.10956E+00   -0.25610E+00 20704   0.122E+00    0.492E+00
DAV:  15    -0.106866889132E+05    0.14030E-01   -0.15271E+00 20288   0.922E-01    0.370E+00
DAV:  16    -0.106867259520E+05   -0.37039E-01   -0.34782E-01 20928   0.459E-01    0.204E+00
DAV:  17    -0.106866985271E+05    0.27425E-01   -0.15989E-01 20144   0.298E-01    0.163E+00
DAV:  18    -0.106866968242E+05    0.17029E-02   -0.58474E-02 20112   0.171E-01    0.893E-01
DAV:  19    -0.106866964153E+05    0.40886E-03   -0.13669E-02 20864   0.783E-02    0.689E-01
DAV:  20    -0.106866956538E+05    0.76148E-03   -0.85805E-03 19680   0.626E-02    0.304E-01
DAV:  21    -0.106866957627E+05   -0.10888E-03   -0.23253E-03 17920   0.354E-02    0.141E-01
DAV:  22    -0.106866957805E+05   -0.17767E-04   -0.34386E-04  8512   0.196E-02
    1 T=  1508. E= -.10712366E+05 F= -.10686696E+05 E0= -.10686696E+05  EK= 0.29927E+03 SP= -.33E+03 SK= 0.15E+00
       N       E                     dE             d eps       ncg     rms          rms(c)
DAV:   1    -0.106673208563E+05    0.19375E+02   -0.40392E+03 11104   0.317E+01    0.144E+01
DAV:   2    -0.106862814416E+05   -0.18961E+02   -0.19795E+02 18272   0.116E+01    0.682E+00
DAV:   3    -0.106869981696E+05   -0.71673E+00   -0.14755E+01 20928   0.238E+00    0.528E+00
DAV:   4    -0.106864332855E+05    0.56488E+00   -0.35746E+00 19776   0.150E+00    0.229E+00
DAV:   5    -0.106864742739E+05   -0.40988E-01   -0.12421E+00 20000   0.830E-01    0.186E+00
DAV:   6    -0.106864524373E+05    0.21837E-01   -0.49993E-01 20336   0.452E-01    0.828E-01
DAV:   7    -0.106864487425E+05    0.36948E-02   -0.10280E-01 20272   0.248E-01    0.465E-01
DAV:   8    -0.106864486278E+05    0.11467E-03   -0.22118E-02 20928   0.121E-01    0.232E-01
DAV:   9    -0.106864489178E+05   -0.28995E-03   -0.94322E-03 20832   0.724E-02    0.129E-01
DAV:  10    -0.106864490532E+05   -0.13538E-03   -0.26011E-03 19472   0.387E-02    0.752E-02
DAV:  11    -0.106864490245E+05    0.28667E-04   -0.65980E-04 12064   0.224E-02
    2 T=  1499. E= -.10712360E+05 F= -.10686449E+05 E0= -.10686449E+05  EK= 0.29752E+03 SP= -.32E+03 SK= 0.16E+00
       N       E                     dE             d eps       ncg     rms          rms(c)
DAV:   1    -0.106840220455E+05    0.24270E+01   -0.16690E+02 17872   0.124E+01    0.486E+00
DAV:   2    -0.106868673432E+05   -0.28453E+01   -0.30890E+01 18352   0.352E+00    0.331E+00
DAV:   3    -0.106868768664E+05   -0.95233E-02   -0.16699E+00 20880   0.931E-01    0.257E+00
DAV:   4    -0.106868069202E+05    0.69946E-01   -0.88978E-01 20112   0.610E-01    0.139E+00
DAV:   5    -0.106868132586E+05   -0.63385E-02   -0.16836E-01 20112   0.297E-01    0.119E+00
DAV:   6    -0.106868010550E+05    0.12204E-01   -0.57765E-02 20880   0.166E-01    0.799E-01
DAV:   7    -0.106867928010E+05    0.82540E-02   -0.92464E-02 19840   0.171E-01    0.184E-01
DAV:   8    -0.106867935607E+05   -0.75967E-03   -0.12313E-02 20032   0.958E-02    0.164E-01
DAV:   9    -0.106867934596E+05    0.10107E-03   -0.35455E-03 19360   0.384E-02    0.733E-02
DAV:  10    -0.106867934159E+05    0.43719E-04   -0.34007E-04  9520   0.234E-02
    3 T=  1493. E= -.10712365E+05 F= -.10686793E+05 E0= -.10686793E+05  EK= 0.29633E+03 SP= -.32E+03 SK= 0.16E+00
       N       E                     dE             d eps       ncg     rms          rms(c)
DAV:   1    -0.106860970650E+05    0.69639E+00   -0.86363E+00 18160   0.104E+01    0.231E+00
DAV:   2    -0.106875831249E+05   -0.14861E+01   -0.15543E+01 18624   0.329E+00    0.146E+00
DAV:   3    -0.106876280614E+05   -0.44937E-01   -0.69503E-01 19792   0.524E-01    0.125E+00
DAV:   4    -0.106876141611E+05    0.13900E-01   -0.13775E-01 20288   0.259E-01    0.746E-01
DAV:   5    -0.106876138557E+05    0.30537E-03   -0.60067E-02 19840   0.148E-01    0.477E-01
DAV:   6    -0.106876129201E+05    0.93562E-03   -0.81593E-03 20240   0.860E-02    0.365E-01
DAV:   7    -0.106876118539E+05    0.10662E-02   -0.85872E-03 16736   0.541E-02    0.149E-01
DAV:   8    -0.106876118934E+05   -0.39527E-04   -0.22737E-03 17440   0.351E-02    0.104E-01
DAV:   9    -0.106876119533E+05   -0.59891E-04   -0.69344E-04 12672   0.222E-02
    4 T=  1490. E= -.10712345E+05 F= -.10687612E+05 E0= -.10687612E+05  EK= 0.29563E+03 SP= -.32E+03 SK= 0.16E+00
       N       E                     dE             d eps       ncg     rms          rms(c)
DAV:   1    -0.106873881772E+05    0.22372E+00   -0.94887E+00 17344   0.105E+01    0.238E+00
DAV:   2    -0.106889375600E+05   -0.15494E+01   -0.16255E+01 18624   0.338E+00    0.151E+00
DAV:   3    -0.106889889766E+05   -0.51417E-01   -0.75914E-01 19744   0.544E-01    0.131E+00
DAV:   4    -0.106889731307E+05    0.15846E-01   -0.15731E-01 20160   0.276E-01    0.778E-01
DAV:   5    -0.106889746165E+05   -0.14858E-02   -0.77715E-02 19920   0.165E-01    0.552E-01
DAV:   6    -0.106889726306E+05    0.19859E-02   -0.10228E-02 20128   0.978E-02    0.417E-01
DAV:   7    -0.106889712925E+05    0.13381E-02   -0.13876E-02 17248   0.652E-02    0.164E-01
DAV:   8    -0.106889713725E+05   -0.80033E-04   -0.25508E-03 17920   0.397E-02    0.116E-01
DAV:   9    -0.106889714637E+05   -0.91204E-04   -0.79600E-04 12864   0.224E-02
    5 T=  1489. E= -.10712328E+05 F= -.10688971E+05 E0= -.10688971E+05  EK= 0.29548E+03 SP= -.32E+03 SK= 0.16E+00
       N       E                     dE             d eps       ncg     rms          rms(c)
DAV:   1    -0.106893213583E+05   -0.34999E+00   -0.96113E+00 17184   0.106E+01    0.239E+00
DAV:   2    -0.106908913620E+05   -0.15700E+01   -0.16440E+01 18608   0.341E+00    0.151E+00
DAV:   3    -0.106909450838E+05   -0.53722E-01   -0.77306E-01 19904   0.548E-01    0.130E+00
DAV:   4    -0.106909297788E+05    0.15305E-01   -0.16023E-01 20144   0.279E-01    0.775E-01
DAV:   5    -0.106909318117E+05   -0.20329E-02   -0.74315E-02 19888   0.161E-01    0.560E-01
DAV:   6    -0.106909294923E+05    0.23194E-02   -0.97989E-03 19984   0.969E-02    0.409E-01
DAV:   7    -0.106909283119E+05    0.11804E-02   -0.15055E-02 16944   0.670E-02    0.152E-01
DAV:   8    -0.106909284065E+05   -0.94642E-04   -0.23655E-03 17744   0.404E-02    0.109E-01
DAV:   9    -0.106909285257E+05   -0.11920E-03   -0.91918E-04 13344   0.225E-02    0.774E-02
DAV:  10    -0.106909284702E+05    0.55526E-04   -0.92000E-05  7904   0.155E-02
    6 T=  1491. E= -.10712316E+05 F= -.10690928E+05 E0= -.10690928E+05  EK= 0.29594E+03 SP= -.32E+03 SK= 0.15E+00
       N       E                     dE             d eps       ncg     rms          rms(c)
DAV:   1    -0.106916726938E+05   -0.74417E+00   -0.94493E+00 17392   0.106E+01    0.231E+00
DAV:   2    -0.106932465001E+05   -0.15738E+01   -0.16371E+01 18592   0.340E+00    0.153E+00
DAV:   3    -0.106932949820E+05   -0.48482E-01   -0.75291E-01 19936   0.545E-01    0.132E+00
DAV:   4    -0.106932795254E+05    0.15457E-01   -0.15582E-01 20272   0.271E-01    0.774E-01
DAV:   5    -0.106932800953E+05   -0.56989E-03   -0.70346E-02 19936   0.158E-01    0.522E-01
DAV:   6    -0.106932785940E+05    0.15014E-02   -0.89566E-03 19936   0.936E-02    0.386E-01
DAV:   7    -0.106932774037E+05    0.11902E-02   -0.10695E-02 16912   0.578E-02    0.145E-01
DAV:   8    -0.106932775020E+05   -0.98278E-04   -0.19634E-03 17280   0.355E-02    0.104E-01
DAV:   9    -0.106932775829E+05   -0.80867E-04   -0.30287E-04  9072   0.186E-02
    7 T=  1496. E= -.10712358E+05 F= -.10693278E+05 E0= -.10693278E+05  EK= 0.29673E+03 SP= -.32E+03 SK= 0.16E+00
       N       E                     dE             d eps       ncg     rms          rms(c)
DAV:   1    -0.106938591855E+05   -0.58168E+00   -0.88711E+00 17632   0.104E+01    0.237E+00
DAV:   2    -0.106953601131E+05   -0.15009E+01   -0.15792E+01 18608   0.332E+00    0.144E+00
DAV:   3    -0.106954136598E+05   -0.53547E-01   -0.73642E-01 19664   0.534E-01    0.124E+00
DAV:   4    -0.106954000649E+05    0.13595E-01   -0.14820E-01 20160   0.267E-01    0.737E-01
DAV:   5    -0.106954018985E+05   -0.18336E-02   -0.66095E-02 19904   0.153E-01    0.536E-01
DAV:   6    -0.106953998161E+05    0.20824E-02   -0.83686E-03 19760   0.897E-02    0.393E-01
DAV:   7    -0.106953986731E+05    0.11430E-02   -0.13465E-02 16848   0.640E-02    0.141E-01
DAV:   8    -0.106953987615E+05   -0.88470E-04   -0.23317E-03 17360   0.385E-02    0.101E-01
DAV:   9    -0.106953988407E+05   -0.79139E-04   -0.75544E-04 12608   0.218E-02
    8 T=  1498. E= -.10712383E+05 F= -.10695399E+05 E0= -.10695399E+05  EK= 0.29730E+03 SP= -.31E+03 SK= 0.16E+00
       N       E                     dE             d eps       ncg     rms          rms(c)
DAV:   1    -0.106952582984E+05    0.14046E+00   -0.88274E+00 17680   0.105E+01    0.229E+00
DAV:   2    -0.106967767888E+05   -0.15185E+01   -0.15846E+01 18608   0.332E+00    0.148E+00
DAV:   3    -0.106968238011E+05   -0.47012E-01   -0.70761E-01 19648   0.525E-01    0.125E+00
DAV:   4    -0.106968101463E+05    0.13655E-01   -0.14973E-01 20256   0.260E-01    0.742E-01
DAV:   5    -0.106968109118E+05   -0.76552E-03   -0.61868E-02 19920   0.151E-01    0.516E-01
DAV:   6    -0.106968092688E+05    0.16430E-02   -0.77011E-03 20144   0.858E-02    0.375E-01
DAV:   7    -0.106968082055E+05    0.10634E-02   -0.10596E-02 17264   0.574E-02    0.138E-01
DAV:   8    -0.106968082868E+05   -0.81374E-04   -0.19101E-03 16976   0.351E-02    0.955E-02
DAV:   9    -0.106968083583E+05   -0.71411E-04   -0.42194E-04 10144   0.195E-02
    9 T=  1498. E= -.10712393E+05 F= -.10696808E+05 E0= -.10696808E+05  EK= 0.29713E+03 SP= -.31E+03 SK= 0.17E+00
       N       E                     dE             d eps       ncg     rms          rms(c)
DAV:   1    -0.106958258198E+05    0.98247E+00   -0.89306E+00 17488   0.105E+01    0.230E+00
DAV:   2    -0.106973461810E+05   -0.15204E+01   -0.15888E+01 18624   0.336E+00    0.143E+00
DAV:   3    -0.106973958411E+05   -0.49660E-01   -0.71261E-01 19440   0.526E-01    0.121E+00
DAV:   4    -0.106973836559E+05    0.12185E-01   -0.14381E-01 20256   0.256E-01    0.724E-01
DAV:   5    -0.106973842531E+05   -0.59721E-03   -0.59299E-02 19888   0.148E-01    0.499E-01
DAV:   6    -0.106973828590E+05    0.13942E-02   -0.78070E-03 20112   0.842E-02    0.369E-01
DAV:   7    -0.106973818239E+05    0.10351E-02   -0.96481E-03 17472   0.557E-02    0.143E-01
DAV:   8    -0.106973818823E+05   -0.58430E-04   -0.18930E-03 16960   0.344E-02    0.949E-02
DAV:   9    -0.106973819416E+05   -0.59335E-04   -0.38252E-04 10000   0.193E-02
   10 T=  1493. E= -.10712383E+05 F= -.10697382E+05 E0= -.10697382E+05  EK= 0.29614E+03 SP= -.31E+03 SK= 0.17E+00
       N       E                     dE             d eps       ncg     rms          rms(c)
DAV:   1    -0.106957948769E+05    0.15870E+01   -0.86550E+00 17248   0.104E+01    0.226E+00
DAV:   2    -0.106972927585E+05   -0.14979E+01   -0.15626E+01 18624   0.334E+00    0.141E+00
DAV:   3    -0.106973407617E+05   -0.48003E-01   -0.69582E-01 19504   0.522E-01    0.119E+00
DAV:   4    -0.106973288538E+05    0.11908E-01   -0.13816E-01 20240   0.252E-01    0.718E-01
DAV:   5    -0.106973289855E+05   -0.13176E-03   -0.56663E-02 19840   0.146E-01    0.483E-01
DAV:   6    -0.106973277795E+05    0.12060E-02   -0.75357E-03 20224   0.826E-02    0.356E-01
DAV:   7    -0.106973268040E+05    0.97549E-03   -0.83789E-03 17344   0.524E-02    0.140E-01
DAV:   8    -0.106973268517E+05   -0.47744E-04   -0.17285E-03 16720   0.328E-02    0.929E-02
DAV:   9    -0.106973269093E+05   -0.57537E-04   -0.32180E-04  9408   0.185E-02
   11 T=  1484. E= -.10712380E+05 F= -.10697327E+05 E0= -.10697327E+05  EK= 0.29451E+03 SP= -.31E+03 SK= 0.17E+00
       N       E                     dE             d eps       ncg     rms          rms(c)
DAV:   1    -0.106954835758E+05    0.18433E+01   -0.81379E+00 17504   0.104E+01    0.223E+00
DAV:   2    -0.106969311294E+05   -0.14476E+01   -0.15117E+01 18592   0.327E+00    0.137E+00
DAV:   3    -0.106969788084E+05   -0.47679E-01   -0.68562E-01 19488   0.520E-01    0.118E+00
DAV:   4    -0.106969675156E+05    0.11293E-01   -0.12760E-01 20352   0.245E-01    0.713E-01
DAV:   5    -0.106969667968E+05    0.71888E-03   -0.55603E-02 19904   0.144E-01    0.452E-01
DAV:   6    -0.106969660172E+05    0.77960E-03   -0.76899E-03 20080   0.825E-02    0.343E-01
DAV:   7    -0.106969650462E+05    0.97099E-03   -0.69445E-03 17296   0.491E-02    0.142E-01
DAV:   8    -0.106969650642E+05   -0.17997E-04   -0.17852E-03 16656   0.316E-02    0.909E-02
DAV:   9    -0.106969651038E+05   -0.39673E-04   -0.22774E-04  8304   0.187E-02
   12 T=  1475. E= -.10712378E+05 F= -.10696965E+05 E0= -.10696965E+05  EK= 0.29263E+03 SP= -.31E+03 SK= 0.15E+00
       N       E                     dE             d eps       ncg     rms          rms(c)
DAV:   1    -0.106952029334E+05    0.17621E+01   -0.77381E+00 17824   0.103E+01    0.219E+00
DAV:   2    -0.106965974799E+05   -0.13945E+01   -0.14581E+01 18592   0.321E+00    0.132E+00
DAV:   3    -0.106966440715E+05   -0.46592E-01   -0.66639E-01 19648   0.510E-01    0.116E+00
DAV:   4    -0.106966334082E+05    0.10663E-01   -0.11657E-01 20464   0.240E-01    0.712E-01
DAV:   5    -0.106966318973E+05    0.15109E-02   -0.53928E-02 19840   0.140E-01    0.422E-01
DAV:   6    -0.106966314999E+05    0.39740E-03   -0.81306E-03 19984   0.823E-02    0.329E-01
DAV:   7    -0.106966305725E+05    0.92742E-03   -0.56187E-03 17248   0.459E-02    0.145E-01
DAV:   8    -0.106966305534E+05    0.19063E-04   -0.20109E-03 17488   0.313E-02    0.875E-02
DAV:   9    -0.106966305830E+05   -0.29534E-04   -0.20254E-04  8080   0.187E-02
   13 T=  1466. E= -.10712387E+05 F= -.10696631E+05 E0= -.10696631E+05  EK= 0.29086E+03 SP= -.31E+03 SK= 0.13E+00
       N       E                     dE             d eps       ncg     rms          rms(c)
DAV:   1    -0.106950747642E+05    0.15558E+01   -0.76125E+00 17744   0.102E+01    0.217E+00
DAV:   2    -0.106964527946E+05   -0.13780E+01   -0.14417E+01 18592   0.323E+00    0.132E+00
DAV:   3    -0.106965008168E+05   -0.48022E-01   -0.67710E-01 19840   0.511E-01    0.116E+00
DAV:   4    -0.106964899763E+05    0.10841E-01   -0.11549E-01 20624   0.243E-01    0.714E-01
DAV:   5    -0.106964886455E+05    0.13308E-02   -0.55485E-02 19648   0.140E-01    0.426E-01
DAV:   6    -0.106964881875E+05    0.45798E-03   -0.81738E-03 19664   0.828E-02    0.335E-01
DAV:   7    -0.106964872273E+05    0.96022E-03   -0.62773E-03 16992   0.481E-02    0.144E-01
DAV:   8    -0.106964872274E+05   -0.96858E-07   -0.20796E-03 17392   0.322E-02    0.921E-02
DAV:   9    -0.106964872612E+05   -0.33823E-04   -0.29927E-04  9152   0.200E-02
   14 T=  1459. E= -.10712408E+05 F= -.10696487E+05 E0= -.10696487E+05  EK= 0.28940E+03 SP= -.31E+03 SK= 0.11E+00
       N       E                     dE             d eps       ncg     rms          rms(c)
DAV:   1    -0.106950893662E+05    0.13979E+01   -0.71652E+00 18032   0.102E+01    0.214E+00
DAV:   2    -0.106964220133E+05   -0.13326E+01   -0.13956E+01 18560   0.318E+00    0.134E+00
DAV:   3    -0.106964711248E+05   -0.49111E-01   -0.68442E-01 19840   0.517E-01    0.117E+00
DAV:   4    -0.106964594852E+05    0.11640E-01   -0.11955E-01 20400   0.248E-01    0.716E-01
DAV:   5    -0.106964591285E+05    0.35677E-03   -0.61430E-02 19728   0.146E-01    0.459E-01
DAV:   6    -0.106964580771E+05    0.10513E-02   -0.84149E-03 19856   0.881E-02    0.353E-01
DAV:   7    -0.106964571498E+05    0.92729E-03   -0.90332E-03 16944   0.538E-02    0.141E-01
DAV:   8    -0.106964571993E+05   -0.49448E-04   -0.17697E-03 16880   0.328E-02    0.102E-01
DAV:   9    -0.106964572804E+05   -0.81072E-04   -0.66058E-04 12688   0.207E-02
   15 T=  1453. E= -.10712419E+05 F= -.10696457E+05 E0= -.10696457E+05  EK= 0.28823E+03 SP= -.30E+03 SK= 0.77E-01
       N       E                     dE             d eps       ncg     rms          rms(c)
DAV:   1    -0.106949929695E+05    0.14642E+01   -0.71597E+00 17696   0.102E+01    0.212E+00
DAV:   2    -0.106963184797E+05   -0.13255E+01   -0.13892E+01 18624   0.317E+00    0.137E+00
DAV:   3    -0.106963639853E+05   -0.45506E-01   -0.66111E-01 19872   0.506E-01    0.119E+00
DAV:   4    -0.106963513387E+05    0.12647E-01   -0.12336E-01 20272   0.251E-01    0.726E-01
DAV:   5    -0.106963512731E+05    0.65601E-04   -0.64662E-02 19648   0.149E-01    0.479E-01
DAV:   6    -0.106963498228E+05    0.14504E-02   -0.87965E-03 19840   0.914E-02    0.362E-01
DAV:   7    -0.106963489004E+05    0.92235E-03   -0.10272E-02 17136   0.564E-02    0.141E-01
DAV:   8    -0.106963489679E+05   -0.67517E-04   -0.16805E-03 16928   0.334E-02    0.104E-01
DAV:   9    -0.106963490671E+05   -0.99149E-04   -0.70081E-04 12560   0.206E-02
   16 T=  1447. E= -.10712421E+05 F= -.10696349E+05 E0= -.10696349E+05  EK= 0.28719E+03 SP= -.30E+03 SK= 0.50E-01
       N       E                     dE             d eps       ncg     rms          rms(c)
DAV:   1    -0.106947438792E+05    0.16051E+01   -0.73660E+00 17472   0.102E+01    0.214E+00
DAV:   2    -0.106961015605E+05   -0.13577E+01   -0.14224E+01 18624   0.324E+00    0.134E+00
DAV:   3    -0.106961488337E+05   -0.47273E-01   -0.67639E-01 19728   0.513E-01    0.116E+00
DAV:   4    -0.106961375920E+05    0.11242E-01   -0.12005E-01 20544   0.246E-01    0.713E-01
DAV:   5    -0.106961368038E+05    0.78820E-03   -0.57516E-02 19728   0.142E-01    0.446E-01
DAV:   6    -0.106961358783E+05    0.92556E-03   -0.78023E-03 19968   0.843E-02    0.343E-01
DAV:   7    -0.106961349580E+05    0.92032E-03   -0.79949E-03 17056   0.517E-02    0.137E-01
DAV:   8    -0.106961350011E+05   -0.43132E-04   -0.18018E-03 16896   0.325E-02    0.979E-02
DAV:   9    -0.106961350685E+05   -0.67460E-04   -0.62617E-04 12688   0.206E-02
   17 T=  1443. E= -.10712373E+05 F= -.10696135E+05 E0= -.10696135E+05  EK= 0.28631E+03 SP= -.30E+03 SK= 0.26E-01
       N       E                     dE             d eps       ncg     rms          rms(c)
DAV:   1    -0.106948029243E+05    0.13321E+01   -0.74521E+00 17440   0.102E+01    0.213E+00
DAV:   2    -0.106961844350E+05   -0.13815E+01   -0.14438E+01 18624   0.327E+00    0.133E+00
DAV:   3    -0.106962326144E+05   -0.48179E-01   -0.68775E-01 19632   0.518E-01    0.116E+00
DAV:   4    -0.106962221851E+05    0.10429E-01   -0.11680E-01 20672   0.244E-01    0.715E-01
DAV:   5    -0.106962206386E+05    0.15466E-02   -0.53066E-02 19792   0.138E-01    0.422E-01
DAV:   6    -0.106962201392E+05    0.49936E-03   -0.77856E-03 19952   0.814E-02    0.329E-01
DAV:   7    -0.106962192531E+05    0.88610E-03   -0.57700E-03 17408   0.463E-02    0.141E-01
DAV:   8    -0.106962192499E+05    0.31928E-05   -0.19215E-03 17248   0.310E-02    0.912E-02
DAV:   9    -0.106962192761E+05   -0.26193E-04   -0.23627E-04  8160   0.198E-02
   18 T=  1441. E= -.10712348E+05 F= -.10696219E+05 E0= -.10696219E+05  EK= 0.28593E+03 SP= -.30E+03 SK= 0.95E-02
       N       E                     dE             d eps       ncg     rms          rms(c)
DAV:   1    -0.106955352827E+05    0.68397E+00   -0.76311E+00 17472   0.103E+01    0.216E+00
DAV:   2    -0.106969307870E+05   -0.13955E+01   -0.14602E+01 18576   0.330E+00    0.128E+00
DAV:   3    -0.106969847049E+05   -0.53918E-01   -0.73488E-01 19760   0.531E-01    0.114E+00
DAV:   4    -0.106969753728E+05    0.93321E-02   -0.11146E-01 20768   0.243E-01    0.703E-01
DAV:   5    -0.106969732780E+05    0.20948E-02   -0.48585E-02 19744   0.133E-01    0.394E-01
DAV:   6    -0.106969731960E+05    0.82014E-04   -0.84317E-03 20016   0.797E-02    0.316E-01
DAV:   7    -0.106969723476E+05    0.84841E-03   -0.44069E-03 17264   0.430E-02    0.148E-01
DAV:   8    -0.106969722812E+05    0.66414E-04   -0.22368E-03 17392   0.313E-02    0.845E-02
DAV:   9    -0.106969722990E+05   -0.17804E-04   -0.21148E-04  8032   0.199E-02
   19 T=  1444. E= -.10712366E+05 F= -.10696972E+05 E0= -.10696972E+05  EK= 0.28643E+03 SP= -.30E+03 SK= 0.10E-02
       N       E                     dE             d eps       ncg     rms          rms(c)
DAV:   1    -0.106969786702E+05   -0.63890E-02   -0.73984E+00 17536   0.102E+01    0.213E+00
DAV:   2    -0.106983664285E+05   -0.13878E+01   -0.14508E+01 18592   0.327E+00    0.130E+00
DAV:   3    -0.106984164417E+05   -0.50013E-01   -0.70535E-01 19728   0.528E-01    0.116E+00
DAV:   4    -0.106984066213E+05    0.98204E-02   -0.11356E-01 20704   0.244E-01    0.719E-01
DAV:   5    -0.106984042495E+05    0.23718E-02   -0.50797E-02 19728   0.136E-01    0.399E-01
DAV:   6    -0.106984041416E+05    0.10797E-03   -0.86134E-03 19888   0.814E-02    0.318E-01
DAV:   7    -0.106984032959E+05    0.84564E-03   -0.42117E-03 17280   0.422E-02    0.152E-01
DAV:   8    -0.106984032185E+05    0.77444E-04   -0.22217E-03 17408   0.307E-02    0.854E-02
DAV:   9    -0.106984032482E+05   -0.29707E-04   -0.20684E-04  8064   0.199E-02
   20 T=  1451. E= -.10712392E+05 F= -.10698403E+05 E0= -.10698403E+05  EK= 0.28782E+03 SP= -.30E+03 SK= 0.70E-03
       N       E                     dE             d eps       ncg     rms          rms(c)
DAV:   1    -0.106988629205E+05   -0.45970E+00   -0.73684E+00 17664   0.102E+01    0.215E+00
DAV:   2    -0.107002494857E+05   -0.13866E+01   -0.14508E+01 18624   0.325E+00    0.131E+00
DAV:   3    -0.107002984660E+05   -0.48980E-01   -0.69674E-01 19712   0.515E-01    0.116E+00
DAV:   4    -0.107002881855E+05    0.10280E-01   -0.11394E-01 20720   0.239E-01    0.717E-01
DAV:   5    -0.107002861279E+05    0.20576E-02   -0.51209E-02 19728   0.136E-01    0.412E-01
DAV:   6    -0.107002858974E+05    0.23047E-03   -0.81533E-03 20032   0.799E-02    0.326E-01
DAV:   7    -0.107002849726E+05    0.92484E-03   -0.49467E-03 17216   0.448E-02    0.149E-01
DAV:   8    -0.107002849388E+05    0.33802E-04   -0.22890E-03 17584   0.318E-02    0.874E-02
DAV:   9    -0.107002849626E+05   -0.23839E-04   -0.25007E-04  8368   0.205E-02
   21 T=  1461. E= -.10712410E+05 F= -.10700285E+05 E0= -.10700285E+05  EK= 0.28987E+03 SP= -.30E+03 SK= 0.54E-02
       N       E                     dE             d eps       ncg     rms          rms(c)
DAV:   1    -0.107009399778E+05   -0.65504E+00   -0.76012E+00 17424   0.102E+01    0.215E+00
DAV:   2    -0.107023431401E+05   -0.14032E+01   -0.14657E+01 18624   0.328E+00    0.134E+00
DAV:   3    -0.107023935151E+05   -0.50375E-01   -0.70413E-01 19648   0.517E-01    0.115E+00
DAV:   4    -0.107023833374E+05    0.10178E-01   -0.11921E-01 20704   0.243E-01    0.704E-01
DAV:   5    -0.107023822001E+05    0.11373E-02   -0.48530E-02 19904   0.134E-01    0.436E-01
DAV:   6    -0.107023814962E+05    0.70389E-03   -0.67394E-03 19984   0.764E-02    0.330E-01
DAV:   7    -0.107023806201E+05    0.87616E-03   -0.62487E-03 16832   0.479E-02    0.133E-01
DAV:   8    -0.107023806563E+05   -0.36205E-04   -0.18657E-03 16912   0.317E-02    0.905E-02
DAV:   9    -0.107023806989E+05   -0.42636E-04   -0.39219E-04  9984   0.205E-02
   22 T=  1473. E= -.10712424E+05 F= -.10702381E+05 E0= -.10702381E+05  EK= 0.29229E+03 SP= -.30E+03 SK= 0.11E-01
       N       E                     dE             d eps       ncg     rms          rms(c)
DAV:   1    -0.107029632839E+05   -0.58263E+00   -0.76167E+00 17280   0.103E+01    0.214E+00
DAV:   2    -0.107043699287E+05   -0.14066E+01   -0.14672E+01 18608   0.331E+00    0.136E+00
DAV:   3    -0.107044189198E+05   -0.48991E-01   -0.69108E-01 19696   0.521E-01    0.116E+00
DAV:   4    -0.107044080580E+05    0.10862E-01   -0.12317E-01 20656   0.248E-01    0.708E-01
DAV:   5    -0.107044074767E+05    0.58126E-03   -0.51011E-02 19808   0.137E-01    0.455E-01
DAV:   6    -0.107044064705E+05    0.10062E-02   -0.65832E-03 20000   0.782E-02    0.335E-01
DAV:   7    -0.107044056502E+05    0.82035E-03   -0.72789E-03 17008   0.496E-02    0.130E-01
DAV:   8    -0.107044057035E+05   -0.53365E-04   -0.15772E-03 15776   0.312E-02    0.943E-02
DAV:   9    -0.107044057775E+05   -0.73911E-04   -0.53786E-04 11488   0.197E-02
   23 T=  1485. E= -.10712445E+05 F= -.10704406E+05 E0= -.10704406E+05  EK= 0.29473E+03 SP= -.30E+03 SK= 0.15E-01
       N       E                     dE             d eps       ncg     rms          rms(c)
DAV:   1    -0.107045340086E+05   -0.12831E+00   -0.76355E+00 17376   0.103E+01    0.215E+00
DAV:   2    -0.107059344438E+05   -0.14004E+01   -0.14623E+01 18592   0.331E+00    0.135E+00
DAV:   3    -0.107059822373E+05   -0.47793E-01   -0.67770E-01 19712   0.514E-01    0.115E+00
DAV:   4    -0.107059713427E+05    0.10895E-01   -0.12146E-01 20640   0.245E-01    0.701E-01
DAV:   5    -0.107059709427E+05    0.39996E-03   -0.51714E-02 19840   0.137E-01    0.451E-01
DAV:   6    -0.107059698859E+05    0.10568E-02   -0.65895E-03 19984   0.789E-02    0.331E-01
DAV:   7    -0.107059691029E+05    0.78293E-03   -0.77541E-03 16960   0.508E-02    0.126E-01
DAV:   8    -0.107059691570E+05   -0.54031E-04   -0.15537E-03 15712   0.316E-02    0.914E-02
DAV:   9    -0.107059692335E+05   -0.76562E-04   -0.60328E-04 11936   0.202E-02
   24 T=  1496. E= -.10712463E+05 F= -.10705969E+05 E0= -.10705969E+05  EK= 0.29675E+03 SP= -.30E+03 SK= 0.15E-01
       N       E                     dE             d eps       ncg     rms          rms(c)
DAV:   1    -0.107053611351E+05    0.60802E+00   -0.78455E+00 17424   0.103E+01    0.215E+00
DAV:   2    -0.107067675956E+05   -0.14065E+01   -0.14673E+01 18592   0.332E+00    0.132E+00
DAV:   3    -0.107068155021E+05   -0.47906E-01   -0.67601E-01 19616   0.514E-01    0.113E+00
DAV:   4    -0.107068056777E+05    0.98244E-02   -0.11692E-01 20752   0.241E-01    0.690E-01
DAV:   5    -0.107068047592E+05    0.91853E-03   -0.47816E-02 19888   0.133E-01    0.424E-01
DAV:   6    -0.107068039638E+05    0.79542E-03   -0.61953E-03 19888   0.752E-02    0.313E-01
DAV:   7    -0.107068032564E+05    0.70739E-03   -0.62726E-03 17024   0.470E-02    0.122E-01
DAV:   8    -0.107068032971E+05   -0.40697E-04   -0.14803E-03 15440   0.301E-02    0.868E-02
DAV:   9    -0.107068033425E+05   -0.45453E-04   -0.41176E-04 10224   0.194E-02
   25 T=  1502. E= -.10712462E+05 F= -.10706803E+05 E0= -.10706803E+05  EK= 0.29805E+03 SP= -.30E+03 SK= 0.13E-01
       N       E                     dE             d eps       ncg     rms          rms(c)
DAV:   1    -0.107055263456E+05    0.12770E+01   -0.77141E+00 17584   0.103E+01    0.215E+00
DAV:   2    -0.107069270524E+05   -0.14007E+01   -0.14613E+01 18608   0.329E+00    0.129E+00
DAV:   3    -0.107069753712E+05   -0.48319E-01   -0.67920E-01 19600   0.517E-01    0.112E+00
DAV:   4    -0.107069661555E+05    0.92158E-02   -0.11170E-01 20800   0.237E-01    0.694E-01
DAV:   5    -0.107069644799E+05    0.16756E-02   -0.46710E-02 19888   0.132E-01    0.401E-01
DAV:   6    -0.107069640621E+05    0.41782E-03   -0.65993E-03 19936   0.751E-02    0.305E-01
DAV:   7    -0.107069633359E+05    0.72618E-03   -0.48485E-03 17072   0.435E-02    0.128E-01
DAV:   8    -0.107069633511E+05   -0.15150E-04   -0.16741E-03 16304   0.295E-02    0.846E-02
DAV:   9    -0.107069633667E+05   -0.15659E-04   -0.23392E-04  8208   0.196E-02
   26 T=  1505. E= -.10712448E+05 F= -.10706963E+05 E0= -.10706963E+05  EK= 0.29864E+03 SP= -.30E+03 SK= 0.10E-01
       N       E                     dE             d eps       ncg     rms          rms(c)
DAV:   1    -0.107052660112E+05    0.16973E+01   -0.78459E+00 17520   0.104E+01    0.220E+00
DAV:   2    -0.107066873956E+05   -0.14214E+01   -0.14846E+01 18592   0.330E+00    0.130E+00
DAV:   3    -0.107067374480E+05   -0.50052E-01   -0.69751E-01 19648   0.526E-01    0.115E+00
DAV:   4    -0.107067276167E+05    0.98313E-02   -0.11772E-01 20768   0.245E-01    0.699E-01
DAV:   5    -0.107067263455E+05    0.12711E-02   -0.50240E-02 19776   0.135E-01    0.412E-01
DAV:   6    -0.107067259791E+05    0.36641E-03   -0.72307E-03 19872   0.783E-02    0.318E-01
DAV:   7    -0.107067251439E+05    0.83526E-03   -0.53859E-03 17040   0.455E-02    0.136E-01
DAV:   8    -0.107067251507E+05   -0.68725E-05   -0.19146E-03 17312   0.311E-02    0.861E-02
DAV:   9    -0.107067251752E+05   -0.24452E-04   -0.24203E-04  8368   0.194E-02
   27 T=  1506. E= -.10712447E+05 F= -.10706725E+05 E0= -.10706725E+05  EK= 0.29875E+03 SP= -.30E+03 SK= 0.69E-02
       N       E                     dE             d eps       ncg     rms          rms(c)
DAV:   1    -0.107048364705E+05    0.18887E+01   -0.81423E+00 17440   0.105E+01    0.223E+00
DAV:   2    -0.107062936917E+05   -0.14572E+01   -0.15227E+01 18608   0.333E+00    0.138E+00
DAV:   3    -0.107063432956E+05   -0.49604E-01   -0.71125E-01 19840   0.527E-01    0.121E+00
DAV:   4    -0.107063311714E+05    0.12124E-01   -0.12955E-01 20656   0.253E-01    0.724E-01
DAV:   5    -0.107063307315E+05    0.43986E-03   -0.59128E-02 19856   0.145E-01    0.454E-01
DAV:   6    -0.107063299429E+05    0.78857E-03   -0.78676E-03 19776   0.845E-02    0.346E-01
DAV:   7    -0.107063289729E+05    0.97001E-03   -0.74426E-03 16960   0.507E-02    0.139E-01
DAV:   8    -0.107063290121E+05   -0.39205E-04   -0.18457E-03 16816   0.328E-02    0.925E-02
DAV:   9    -0.107063290621E+05   -0.49932E-04   -0.26266E-04  8640   0.193E-02
   28 T=  1505. E= -.10712447E+05 F= -.10706329E+05 E0= -.10706329E+05  EK= 0.29865E+03 SP= -.30E+03 SK= 0.44E-02
       N       E                     dE             d eps       ncg     rms          rms(c)
DAV:   1    -0.107043512326E+05    0.19778E+01   -0.83620E+00 17536   0.105E+01    0.226E+00
DAV:   2    -0.107058226462E+05   -0.14714E+01   -0.15402E+01 18512   0.332E+00    0.142E+00
DAV:   3    -0.107058761943E+05   -0.53548E-01   -0.76079E-01 19888   0.553E-01    0.125E+00
DAV:   4    -0.107058629036E+05    0.13291E-01   -0.13769E-01 20640   0.263E-01    0.740E-01
DAV:   5    -0.107058626984E+05    0.20517E-03   -0.63860E-02 19904   0.151E-01    0.473E-01
DAV:   6    -0.107058617997E+05    0.89871E-03   -0.84591E-03 19968   0.875E-02    0.366E-01
DAV:   7    -0.107058607157E+05    0.10840E-02   -0.80825E-03 16896   0.523E-02    0.149E-01
DAV:   8    -0.107058607555E+05   -0.39846E-04   -0.20674E-03 17440   0.338E-02    0.986E-02
DAV:   9    -0.107058608077E+05   -0.52134E-04   -0.25888E-04  8608   0.194E-02
   29 T=  1504. E= -.10712459E+05 F= -.10705861E+05 E0= -.10705861E+05  EK= 0.29839E+03 SP= -.30E+03 SK= 0.25E-02
       N       E                     dE             d eps       ncg     rms          rms(c)
DAV:   1    -0.107036306502E+05    0.22301E+01   -0.84798E+00 17328   0.105E+01    0.228E+00
DAV:   2    -0.107051265010E+05   -0.14959E+01   -0.15654E+01 18592   0.333E+00    0.145E+00
DAV:   3    -0.107051760592E+05   -0.49558E-01   -0.72152E-01 19840   0.530E-01    0.125E+00
DAV:   4    -0.107051624706E+05    0.13589E-01   -0.13947E-01 20384   0.262E-01    0.743E-01
DAV:   5    -0.107051626755E+05   -0.20486E-03   -0.63163E-02 19888   0.150E-01    0.491E-01
DAV:   6    -0.107051615164E+05    0.11591E-02   -0.80639E-03 20144   0.875E-02    0.374E-01
DAV:   7    -0.107051604246E+05    0.10918E-02   -0.93263E-03 17056   0.551E-02    0.144E-01
DAV:   8    -0.107051604896E+05   -0.65052E-04   -0.20921E-03 17584   0.346E-02    0.999E-02
DAV:   9    -0.107051605514E+05   -0.61761E-04   -0.39473E-04  9856   0.200E-02
   30 T=  1501. E= -.10712465E+05 F= -.10705161E+05 E0= -.10705161E+05  EK= 0.29785E+03 SP= -.31E+03 SK= 0.14E-02
       N       E                     dE             d eps       ncg     rms          rms(c)
DAV:   1    -0.107025772376E+05    0.25833E+01   -0.85834E+00 17520   0.105E+01    0.228E+00
DAV:   2    -0.107040726902E+05   -0.14955E+01   -0.15631E+01 18640   0.330E+00    0.147E+00
DAV:   3    -0.107041214828E+05   -0.48793E-01   -0.71018E-01 19824   0.525E-01    0.125E+00
DAV:   4    -0.107041077209E+05    0.13762E-01   -0.14662E-01 20480   0.267E-01    0.739E-01
DAV:   5    -0.107041089315E+05   -0.12106E-02   -0.62338E-02 19952   0.150E-01    0.520E-01
DAV:   6    -0.107041071056E+05    0.18259E-02   -0.79909E-03 20032   0.877E-02    0.380E-01
DAV:   7    -0.107041060511E+05    0.10545E-02   -0.11350E-02 16944   0.590E-02    0.137E-01
DAV:   8    -0.107041061442E+05   -0.93063E-04   -0.19696E-03 17248   0.359E-02    0.987E-02
DAV:   9    -0.107041062363E+05   -0.92101E-04   -0.54335E-04 11440   0.200E-02
   31 T=  1496. E= -.10712473E+05 F= -.10704106E+05 E0= -.10704106E+05  EK= 0.29692E+03 SP= -.31E+03 SK= 0.79E-03
       N       E                     dE             d eps       ncg     rms          rms(c)
DAV:   1    -0.107012106518E+05    0.28955E+01   -0.86396E+00 17440   0.104E+01    0.228E+00
DAV:   2    -0.107027095941E+05   -0.14989E+01   -0.15653E+01 18608   0.330E+00    0.143E+00
DAV:   3    -0.107027605040E+05   -0.50910E-01   -0.72536E-01 19984   0.530E-01    0.123E+00
DAV:   4    -0.107027473951E+05    0.13109E-01   -0.13965E-01 20448   0.264E-01    0.728E-01
DAV:   5    -0.107027479679E+05   -0.57280E-03   -0.58249E-02 19904   0.145E-01    0.497E-01
DAV:   6    -0.107027464629E+05    0.15050E-02   -0.77339E-03 20144   0.859E-02    0.367E-01
DAV:   7    -0.107027454081E+05    0.10548E-02   -0.95644E-03 16864   0.550E-02    0.136E-01
DAV:   8    -0.107027454889E+05   -0.80881E-04   -0.19135E-03 17408   0.343E-02    0.959E-02
DAV:   9    -0.107027455624E+05   -0.73513E-04   -0.31954E-04  9312   0.190E-02
   32 T=  1490. E= -.10712458E+05 F= -.10702746E+05 E0= -.10702746E+05  EK= 0.29568E+03 SP= -.31E+03 SK= 0.71E-03
       N       E                     dE             d eps       ncg     rms          rms(c)
DAV:   1    -0.106997791415E+05    0.29663E+01   -0.83003E+00 17392   0.104E+01    0.222E+00
DAV:   2    -0.107012616802E+05   -0.14825E+01   -0.15451E+01 18608   0.333E+00    0.134E+00
DAV:   3    -0.107013109893E+05   -0.49309E-01   -0.68932E-01 19776   0.520E-01    0.115E+00
DAV:   4    -0.107013006066E+05    0.10383E-01   -0.11930E-01 20688   0.244E-01    0.701E-01
DAV:   5    -0.107012995408E+05    0.10658E-02   -0.48287E-02 19856   0.134E-01    0.432E-01
DAV:   6    -0.107012989656E+05    0.57516E-03   -0.69534E-03 20160   0.770E-02    0.328E-01
DAV:   7    -0.107012980860E+05    0.87961E-03   -0.57387E-03 17056   0.460E-02    0.135E-01
DAV:   8    -0.107012980998E+05   -0.13739E-04   -0.18097E-03 16704   0.308E-02    0.877E-02
DAV:   9    -0.107012981351E+05   -0.35335E-04   -0.25524E-04  8784   0.187E-02
   33 T=  1484. E= -.10712439E+05 F= -.10701298E+05 E0= -.10701298E+05  EK= 0.29436E+03 SP= -.31E+03 SK= 0.11E-02
       N       E                     dE             d eps       ncg     rms          rms(c)
DAV:   1    -0.106985017066E+05    0.27964E+01   -0.81629E+00 17568   0.103E+01    0.219E+00
DAV:   2    -0.106999656237E+05   -0.14639E+01   -0.15236E+01 18592   0.330E+00    0.136E+00
DAV:   3    -0.107000154694E+05   -0.49846E-01   -0.69802E-01 19824   0.519E-01    0.115E+00
DAV:   4    -0.107000051276E+05    0.10342E-01   -0.12150E-01 20672   0.247E-01    0.704E-01
DAV:   5    -0.107000042482E+05    0.87940E-03   -0.46685E-02 19888   0.132E-01    0.441E-01
DAV:   6    -0.107000034771E+05    0.77112E-03   -0.66511E-03 20192   0.760E-02    0.328E-01
DAV:   7    -0.107000026544E+05    0.82266E-03   -0.59012E-03 17136   0.462E-02    0.130E-01
DAV:   8    -0.107000026838E+05   -0.29331E-04   -0.16401E-03 16128   0.303E-02    0.894E-02
DAV:   9    -0.107000027266E+05   -0.42860E-04   -0.23498E-04  8432   0.183E-02
   34 T=  1478. E= -.10712448E+05 F= -.10700003E+05 E0= -.10700003E+05  EK= 0.29321E+03 SP= -.31E+03 SK= 0.24E-02
       N       E                     dE             d eps       ncg     rms          rms(c)
DAV:   1    -0.106975434678E+05    0.24592E+01   -0.81225E+00 17712   0.103E+01    0.224E+00
DAV:   2    -0.106989808042E+05   -0.14373E+01   -0.15020E+01 18592   0.326E+00    0.145E+00
DAV:   3    -0.106990310158E+05   -0.50212E-01   -0.71119E-01 19984   0.522E-01    0.121E+00
DAV:   4    -0.106990183503E+05    0.12666E-01   -0.14340E-01 20240   0.266E-01    0.732E-01
DAV:   5    -0.106990197214E+05   -0.13711E-02   -0.59067E-02 19888   0.147E-01    0.528E-01
DAV:   6    -0.106990176019E+05    0.21196E-02   -0.81371E-03 20176   0.879E-02    0.376E-01
DAV:   7    -0.106990166519E+05    0.94995E-03   -0.11853E-02 17312   0.603E-02    0.133E-01
DAV:   8    -0.106990167485E+05   -0.96624E-04   -0.18941E-03 17216   0.363E-02    0.979E-02
DAV:   9    -0.106990168684E+05   -0.11984E-03   -0.70163E-04 12560   0.203E-02    0.807E-02
DAV:  10    -0.106990167812E+05    0.87168E-04   -0.77179E-05  7712   0.158E-02
   35 T=  1474. E= -.10712443E+05 F= -.10699017E+05 E0= -.10699017E+05  EK= 0.29246E+03 SP= -.31E+03 SK= 0.50E-02
       N       E                     dE             d eps       ncg     rms          rms(c)
DAV:   1    -0.106971364535E+05    0.18804E+01   -0.81034E+00 17600   0.103E+01    0.220E+00
DAV:   2    -0.106985714509E+05   -0.14350E+01   -0.14947E+01 18608   0.323E+00    0.156E+00
DAV:   3    -0.106986156210E+05   -0.44170E-01   -0.70908E-01 20048   0.527E-01    0.132E+00
DAV:   4    -0.106985995727E+05    0.16048E-01   -0.16250E-01 20288   0.275E-01    0.778E-01
DAV:   5    -0.106986013652E+05   -0.17925E-02   -0.72212E-02 19872   0.160E-01    0.569E-01
DAV:   6    -0.106985987727E+05    0.25925E-02   -0.97235E-03 20128   0.959E-02    0.405E-01
DAV:   7    -0.106985976949E+05    0.10778E-02   -0.13638E-02 17568   0.638E-02    0.146E-01
DAV:   8    -0.106985978279E+05   -0.13294E-03   -0.19564E-03 17520   0.381E-02    0.109E-01
DAV:   9    -0.106985979589E+05   -0.13099E-03   -0.61735E-04 12464   0.194E-02    0.934E-02
DAV:  10    -0.106985978353E+05    0.12354E-03   -0.77479E-05  7776   0.162E-02    0.729E-02
DAV:  11    -0.106985978163E+05    0.18993E-04   -0.14012E-03 12544   0.224E-02    0.297E-02
DAV:  12    -0.106985978196E+05   -0.33210E-05   -0.11286E-04  7584   0.143E-02
   36 T=  1473. E= -.10712436E+05 F= -.10698598E+05 E0= -.10698598E+05  EK= 0.29236E+03 SP= -.31E+03 SK= 0.91E-02
       N       E                     dE             d eps       ncg     rms          rms(c)
DAV:   1    -0.106975882990E+05    0.10095E+01   -0.79513E+00 17520   0.103E+01    0.216E+00
DAV:   2    -0.106989815881E+05   -0.13933E+01   -0.14513E+01 18608   0.326E+00    0.145E+00
DAV:   3    -0.106990291815E+05   -0.47593E-01   -0.68267E-01 20000   0.515E-01    0.120E+00
DAV:   4    -0.106990171257E+05    0.12056E-01   -0.14286E-01 20272   0.262E-01    0.722E-01
DAV:   5    -0.106990187671E+05   -0.16413E-02   -0.53545E-02 19840   0.141E-01    0.523E-01
DAV:   6    -0.106990165314E+05    0.22356E-02   -0.73660E-03 19968   0.842E-02    0.366E-01
DAV:   7    -0.106990157483E+05    0.78308E-03   -0.11050E-02 17296   0.580E-02    0.128E-01
DAV:   8    -0.106990158461E+05   -0.97806E-04   -0.17000E-03 17104   0.353E-02    0.968E-02
DAV:   9    -0.106990159664E+05   -0.12025E-03   -0.68803E-04 12752   0.196E-02    0.825E-02
DAV:  10    -0.106990158680E+05    0.98348E-04   -0.75648E-05  7680   0.158E-02
   37 T=  1478. E= -.10712421E+05 F= -.10699016E+05 E0= -.10699016E+05  EK= 0.29320E+03 SP= -.31E+03 SK= 0.14E-01
       N       E                     dE             d eps       ncg     rms          rms(c)
DAV:   1    -0.106990555401E+05   -0.39574E-01   -0.76603E+00 17456   0.103E+01    0.222E+00
DAV:   2    -0.107004571681E+05   -0.14016E+01   -0.14731E+01 18624   0.325E+00    0.146E+00
DAV:   3    -0.107005000343E+05   -0.42866E-01   -0.69738E-01 19776   0.531E-01    0.131E+00
DAV:   4    -0.107004845567E+05    0.15478E-01   -0.13428E-01 20544   0.257E-01    0.783E-01
DAV:   5    -0.107004828664E+05    0.16903E-02   -0.77368E-02 19520   0.162E-01    0.477E-01
DAV:   6    -0.107004823200E+05    0.54637E-03   -0.11239E-02 19488   0.969E-02    0.386E-01
DAV:   7    -0.107004809312E+05    0.13888E-02   -0.78205E-03 17216   0.527E-02    0.177E-01
DAV:   8    -0.107004808865E+05    0.44740E-04   -0.27122E-03 17552   0.353E-02    0.106E-01
DAV:   9    -0.107004809254E+05   -0.38917E-04   -0.25768E-04  8384   0.203E-02
   38 T=  1487. E= -.10712418E+05 F= -.10700481E+05 E0= -.10700481E+05  EK= 0.29514E+03 SP= -.31E+03 SK= 0.17E-01
       N       E                     dE             d eps       ncg     rms          rms(c)
DAV:   1    -0.107016436972E+05   -0.11628E+01   -0.78009E+00 17312   0.104E+01    0.223E+00
DAV:   2    -0.107030374977E+05   -0.13938E+01   -0.14659E+01 18608   0.330E+00    0.131E+00
DAV:   3    -0.107030879159E+05   -0.50418E-01   -0.69146E-01 19808   0.521E-01    0.115E+00
DAV:   4    -0.107030771641E+05    0.10752E-01   -0.12221E-01 20640   0.248E-01    0.685E-01
DAV:   5    -0.107030770128E+05    0.15130E-03   -0.51119E-02 19760   0.135E-01    0.437E-01
DAV:   6    -0.107030762088E+05    0.80406E-03   -0.69946E-03 19904   0.779E-02    0.336E-01
DAV:   7    -0.107030752288E+05    0.97997E-03   -0.75899E-03 17024   0.513E-02    0.134E-01
DAV:   8    -0.107030752584E+05   -0.29593E-04   -0.22393E-03 17360   0.343E-02    0.913E-02
DAV:   9    -0.107030752915E+05   -0.33092E-04   -0.54308E-04 11856   0.212E-02
   39 T=  1503. E= -.10712448E+05 F= -.10703075E+05 E0= -.10703075E+05  EK= 0.29820E+03 SP= -.31E+03 SK= 0.17E-01
       N       E                     dE             d eps       ncg     rms          rms(c)
DAV:   1    -0.107049365502E+05   -0.18613E+01   -0.81286E+00 17184   0.105E+01    0.219E+00
DAV:   2    -0.107064131096E+05   -0.14766E+01   -0.15416E+01 18544   0.341E+00    0.138E+00
DAV:   3    -0.107064644239E+05   -0.51314E-01   -0.75227E-01 19824   0.553E-01    0.122E+00
DAV:   4    -0.107064528890E+05    0.11535E-01   -0.12651E-01 20688   0.256E-01    0.736E-01
DAV:   5    -0.107064507598E+05    0.21292E-02   -0.52883E-02 19744   0.139E-01    0.416E-01
DAV:   6    -0.107064505224E+05    0.23739E-03   -0.89118E-03 20112   0.826E-02    0.325E-01
DAV:   7    -0.107064496312E+05    0.89120E-03   -0.45538E-03 17488   0.435E-02    0.154E-01
DAV:   8    -0.107064495599E+05    0.71299E-04   -0.21820E-03 17632   0.312E-02    0.871E-02
DAV:   9    -0.107064495942E+05   -0.34276E-04   -0.20665E-04  8240   0.191E-02
   40 T=  1522. E= -.10712525E+05 F= -.10706450E+05 E0= -.10706450E+05  EK= 0.30195E+03 SP= -.31E+03 SK= 0.11E-01
       N       E                     dE             d eps       ncg     rms          rms(c)
DAV:   1    -0.107081799964E+05   -0.17304E+01   -0.85964E+00 17024   0.107E+01    0.230E+00
DAV:   2    -0.107097108880E+05   -0.15309E+01   -0.16055E+01 18624   0.351E+00    0.140E+00
DAV:   3    -0.107097652894E+05   -0.54401E-01   -0.77695E-01 19856   0.553E-01    0.123E+00
DAV:   4    -0.107097533540E+05    0.11935E-01   -0.13222E-01 20720   0.264E-01    0.737E-01
DAV:   5    -0.107097520095E+05    0.13445E-02   -0.56779E-02 19632   0.143E-01    0.431E-01
DAV:   6    -0.107097516335E+05    0.37597E-03   -0.88062E-03 20096   0.845E-02    0.336E-01
DAV:   7    -0.107097507122E+05    0.92130E-03   -0.57855E-03 17328   0.470E-02    0.150E-01
DAV:   8    -0.107097506872E+05    0.24975E-04   -0.21323E-03 17504   0.322E-02    0.920E-02
DAV:   9    -0.107097507232E+05   -0.35931E-04   -0.24287E-04  8240   0.203E-02
   41 T=  1540. E= -.10712595E+05 F= -.10709751E+05 E0= -.10709751E+05  EK= 0.30549E+03 SP= -.31E+03 SK= 0.28E-02
       N       E                     dE             d eps       ncg     rms          rms(c)
DAV:   1    -0.107104593099E+05   -0.70862E+00   -0.92739E+00 17136   0.108E+01    0.234E+00
DAV:   2    -0.107120662520E+05   -0.16069E+01   -0.16824E+01 18560   0.358E+00    0.147E+00
DAV:   3    -0.107121245128E+05   -0.58261E-01   -0.83114E-01 19808   0.579E-01    0.126E+00
DAV:   4    -0.107121120239E+05    0.12489E-01   -0.14963E-01 20560   0.282E-01    0.755E-01
DAV:   5    -0.107121114152E+05    0.60867E-03   -0.61084E-02 19840   0.150E-01    0.466E-01
DAV:   6    -0.107121105576E+05    0.85759E-03   -0.84846E-03 20192   0.876E-02    0.352E-01
DAV:   7    -0.107121096187E+05    0.93891E-03   -0.74819E-03 16992   0.509E-02    0.145E-01
DAV:   8    -0.107121096530E+05   -0.34307E-04   -0.20247E-03 17600   0.331E-02    0.976E-02
DAV:   9    -0.107121097246E+05   -0.71581E-04   -0.55249E-04 12064   0.210E-02
   42 T=  1552. E= -.10712619E+05 F= -.10712110E+05 E0= -.10712110E+05  EK= 0.30790E+03 SP= -.31E+03 SK= 0.30E-03
       N       E                     dE             d eps       ncg     rms          rms(c)
DAV:   1    -0.107113742963E+05    0.73536E+00   -0.96313E+00 17120   0.109E+01    0.235E+00
DAV:   2    -0.107130397408E+05   -0.16654E+01   -0.17399E+01 18624   0.362E+00    0.149E+00
DAV:   3    -0.107130994590E+05   -0.59718E-01   -0.85119E-01 19920   0.574E-01    0.128E+00
DAV:   4    -0.107130866967E+05    0.12762E-01   -0.15031E-01 20768   0.282E-01    0.775E-01
DAV:   5    -0.107130857951E+05    0.90156E-03   -0.61708E-02 19712   0.150E-01    0.469E-01
DAV:   6    -0.107130848944E+05    0.90072E-03   -0.83797E-03 20032   0.875E-02    0.353E-01
DAV:   7    -0.107130840375E+05    0.85689E-03   -0.70080E-03 17216   0.493E-02    0.141E-01
DAV:   8    -0.107130840818E+05   -0.44270E-04   -0.17800E-03 17152   0.315E-02    0.995E-02
DAV:   9    -0.107130841588E+05   -0.76999E-04   -0.47300E-04 11232   0.205E-02
   43 T=  1556. E= -.10712625E+05 F= -.10713084E+05 E0= -.10713084E+05  EK= 0.30864E+03 SP= -.31E+03 SK= 0.96E-02
       N       E                     dE             d eps       ncg     rms          rms(c)
DAV:   1    -0.107109035787E+05    0.21805E+01   -0.99756E+00 17184   0.110E+01    0.237E+00
DAV:   2    -0.107126015595E+05   -0.16980E+01   -0.17714E+01 18624   0.367E+00    0.145E+00
DAV:   3    -0.107126641380E+05   -0.62579E-01   -0.86144E-01 20128   0.579E-01    0.125E+00
DAV:   4    -0.107126525590E+05    0.11579E-01   -0.14494E-01 20720   0.281E-01    0.762E-01
DAV:   5    -0.107126514965E+05    0.10625E-02   -0.55958E-02 19552   0.144E-01    0.455E-01
DAV:   6    -0.107126509005E+05    0.59600E-03   -0.83991E-03 20240   0.845E-02    0.352E-01
DAV:   7    -0.107126500463E+05    0.85419E-03   -0.60161E-03 17168   0.472E-02    0.147E-01
DAV:   8    -0.107126500533E+05   -0.69453E-05   -0.18680E-03 17376   0.314E-02    0.102E-01
DAV:   9    -0.107126501082E+05   -0.54916E-04   -0.40051E-04 10128   0.209E-02
   44 T=  1551. E= -.10712589E+05 F= -.10712650E+05 E0= -.10712650E+05  EK= 0.30769E+03 SP= -.31E+03 SK= 0.32E-01
       N       E                     dE             d eps       ncg     rms          rms(c)
DAV:   1    -0.107094556883E+05    0.31944E+01   -0.10168E+01 17040   0.110E+01    0.237E+00
DAV:   2    -0.107111628650E+05   -0.17072E+01   -0.17780E+01 18624   0.368E+00    0.143E+00
DAV:   3    -0.107112257814E+05   -0.62916E-01   -0.85212E-01 20224   0.578E-01    0.123E+00
DAV:   4    -0.107112146952E+05    0.11086E-01   -0.14290E-01 20736   0.278E-01    0.752E-01
DAV:   5    -0.107112139076E+05    0.78757E-03   -0.53422E-02 19648   0.141E-01    0.459E-01
DAV:   6    -0.107112132355E+05    0.67204E-03   -0.79807E-03 20304   0.824E-02    0.350E-01
DAV:   7    -0.107112123982E+05    0.83735E-03   -0.62340E-03 16912   0.476E-02    0.145E-01
DAV:   8    -0.107112124147E+05   -0.16522E-04   -0.18496E-03 17440   0.315E-02    0.102E-01
DAV:   9    -0.107112124863E+05   -0.71623E-04   -0.58105E-04 12432   0.209E-02
   45 T=  1539. E= -.10712558E+05 F= -.10711212E+05 E0= -.10711212E+05  EK= 0.30543E+03 SP= -.31E+03 SK= 0.61E-01
       N       E                     dE             d eps       ncg     rms          rms(c)
DAV:   1    -0.107075762862E+05    0.36361E+01   -0.95028E+00 17152   0.107E+01    0.233E+00
DAV:   2    -0.107092104549E+05   -0.16342E+01   -0.17021E+01 18608   0.355E+00    0.142E+00
DAV:   3    -0.107092692463E+05   -0.58791E-01   -0.80935E-01 20048   0.564E-01    0.122E+00
DAV:   4    -0.107092576581E+05    0.11588E-01   -0.13732E-01 20736   0.271E-01    0.748E-01
DAV:   5    -0.107092567893E+05    0.86877E-03   -0.54490E-02 19632   0.141E-01    0.458E-01
DAV:   6    -0.107092560597E+05    0.72969E-03   -0.79941E-03 20048   0.828E-02    0.347E-01
DAV:   7    -0.107092552160E+05    0.84369E-03   -0.65763E-03 17168   0.484E-02    0.143E-01
DAV:   8    -0.107092552388E+05   -0.22859E-04   -0.18074E-03 17440   0.317E-02    0.993E-02
DAV:   9    -0.107092553068E+05   -0.67976E-04   -0.47728E-04 11456   0.202E-02
   46 T=  1524. E= -.10712540E+05 F= -.10709255E+05 E0= -.10709255E+05  EK= 0.30242E+03 SP= -.31E+03 SK= 0.89E-01
       N       E                     dE             d eps       ncg     rms          rms(c)
DAV:   1    -0.107055950187E+05    0.36602E+01   -0.90675E+00 17456   0.106E+01    0.232E+00
DAV:   2    -0.107071613560E+05   -0.15663E+01   -0.16340E+01 18624   0.343E+00    0.138E+00
DAV:   3    -0.107072174660E+05   -0.56110E-01   -0.77361E-01 20080   0.544E-01    0.120E+00
DAV:   4    -0.107072061138E+05    0.11352E-01   -0.12691E-01 20656   0.262E-01    0.737E-01
DAV:   5    -0.107072048977E+05    0.12161E-02   -0.52540E-02 19648   0.136E-01    0.445E-01
DAV:   6    -0.107072043247E+05    0.57301E-03   -0.80803E-03 20144   0.824E-02    0.340E-01
DAV:   7    -0.107072034642E+05    0.86046E-03   -0.63590E-03 16912   0.481E-02    0.144E-01
DAV:   8    -0.107072034733E+05   -0.90650E-05   -0.19793E-03 17616   0.321E-02    0.970E-02
DAV:   9    -0.107072035273E+05   -0.54075E-04   -0.46641E-04 11216   0.204E-02
   47 T=  1508. E= -.10712510E+05 F= -.10707204E+05 E0= -.10707204E+05  EK= 0.29918E+03 SP= -.30E+03 SK= 0.11E+00
       N       E                     dE             d eps       ncg     rms          rms(c)
DAV:   1    -0.107039384726E+05    0.32650E+01   -0.90328E+00 17568   0.105E+01    0.230E+00
DAV:   2    -0.107054687031E+05   -0.15302E+01   -0.15967E+01 18624   0.337E+00    0.137E+00
DAV:   3    -0.107055235697E+05   -0.54867E-01   -0.75834E-01 20128   0.539E-01    0.120E+00
DAV:   4    -0.107055122950E+05    0.11275E-01   -0.12510E-01 20592   0.257E-01    0.734E-01
DAV:   5    -0.107055111252E+05    0.11698E-02   -0.51337E-02 19664   0.134E-01    0.445E-01
DAV:   6    -0.107055104869E+05    0.63829E-03   -0.76067E-03 20192   0.810E-02    0.335E-01
DAV:   7    -0.107055096651E+05    0.82180E-03   -0.62518E-03 16832   0.476E-02    0.139E-01
DAV:   8    -0.107055096851E+05   -0.19958E-04   -0.18832E-03 17200   0.317E-02    0.943E-02
DAV:   9    -0.107055097323E+05   -0.47279E-04   -0.39274E-04 10128   0.203E-02
   48 T=  1493. E= -.10712495E+05 F= -.10705510E+05 E0= -.10705510E+05  EK= 0.29621E+03 SP= -.30E+03 SK= 0.11E+00
       N       E                     dE             d eps       ncg     rms          rms(c)
DAV:   1    -0.107029758452E+05    0.25338E+01   -0.88222E+00 17616   0.104E+01    0.229E+00
DAV:   2    -0.107044661799E+05   -0.14903E+01   -0.15575E+01 18576   0.331E+00    0.138E+00
DAV:   3    -0.107045180463E+05   -0.51866E-01   -0.72733E-01 19968   0.534E-01    0.121E+00
DAV:   4    -0.107045058794E+05    0.12167E-01   -0.12870E-01 20480   0.258E-01    0.734E-01
DAV:   5    -0.107045053898E+05    0.48963E-03   -0.55180E-02 19760   0.138E-01    0.464E-01
DAV:   6    -0.107045044574E+05    0.93243E-03   -0.76548E-03 19856   0.835E-02    0.348E-01
DAV:   7    -0.107045035479E+05    0.90948E-03   -0.80157E-03 16704   0.521E-02    0.138E-01
DAV:   8    -0.107045035910E+05   -0.43126E-04   -0.20094E-03 17408   0.339E-02    0.967E-02
DAV:   9    -0.107045036654E+05   -0.74332E-04   -0.63981E-04 12752   0.209E-02
   49 T=  1481. E= -.10712488E+05 F= -.10704504E+05 E0= -.10704504E+05  EK= 0.29393E+03 SP= -.30E+03 SK= 0.11E+00
       N       E                     dE             d eps       ncg     rms          rms(c)
DAV:   1    -0.107028534944E+05    0.16501E+01   -0.85149E+00 17760   0.102E+01    0.229E+00
DAV:   2    -0.107043047052E+05   -0.14512E+01   -0.15193E+01 18592   0.322E+00    0.145E+00
DAV:   3    -0.107043507327E+05   -0.46027E-01   -0.68380E-01 19696   0.519E-01    0.125E+00
DAV:   4    -0.107043365908E+05    0.14142E-01   -0.14067E-01 20192   0.257E-01    0.750E-01
DAV:   5    -0.107043374193E+05   -0.82851E-03   -0.67411E-02 19856   0.152E-01    0.515E-01
DAV:   6    -0.107043356150E+05    0.18043E-02   -0.88442E-03 19840   0.909E-02    0.376E-01
DAV:   7    -0.107043346454E+05    0.96959E-03   -0.12130E-02 17168   0.608E-02    0.140E-01
DAV:   8    -0.107043347134E+05   -0.67961E-04   -0.20539E-03 17216   0.369E-02    0.100E-01
DAV:   9    -0.107043348098E+05   -0.96458E-04   -0.84358E-04 12800   0.218E-02
   50 T=  1474. E= -.10712485E+05 F= -.10704335E+05 E0= -.10704335E+05  EK= 0.29255E+03 SP= -.30E+03 SK= 0.98E-01
       N       E                     dE             d eps       ncg     rms          rms(c)
DAV:   1    -0.107035448377E+05    0.78988E+00   -0.86480E+00 17536   0.102E+01    0.231E+00
DAV:   2    -0.107050068242E+05   -0.14620E+01   -0.15321E+01 18592   0.326E+00    0.148E+00
DAV:   3    -0.107050549038E+05   -0.48080E-01   -0.70447E-01 19792   0.528E-01    0.127E+00
DAV:   4    -0.107050403424E+05    0.14561E-01   -0.15117E-01 20160   0.265E-01    0.752E-01
DAV:   5    -0.107050423380E+05   -0.19956E-02   -0.68559E-02 19840   0.155E-01    0.549E-01
DAV:   6    -0.107050399155E+05    0.24225E-02   -0.93725E-03 19728   0.926E-02    0.390E-01
DAV:   7    -0.107050389119E+05    0.10037E-02   -0.13877E-02 17232   0.642E-02    0.141E-01
DAV:   8    -0.107050390000E+05   -0.88161E-04   -0.21100E-03 17488   0.385E-02    0.975E-02
DAV:   9    -0.107050391103E+05   -0.11026E-03   -0.78026E-04 12928   0.211E-02    0.746E-02
DAV:  10    -0.107050390434E+05    0.66902E-04   -0.80936E-05  7760   0.155E-02
   51 T=  1472. E= -.10712471E+05 F= -.10705039E+05 E0= -.10705039E+05  EK= 0.29213E+03 SP= -.30E+03 SK= 0.82E-01
       N       E                     dE             d eps       ncg     rms          rms(c)
DAV:   1    -0.107050836112E+05   -0.44501E-01   -0.88048E+00 17376   0.103E+01    0.227E+00
DAV:   2    -0.107065851306E+05   -0.15015E+01   -0.15641E+01 18592   0.332E+00    0.151E+00
DAV:   3    -0.107066290602E+05   -0.43930E-01   -0.69944E-01 19584   0.529E-01    0.128E+00
DAV:   4    -0.107066143821E+05    0.14678E-01   -0.14992E-01 20224   0.260E-01    0.758E-01
DAV:   5    -0.107066149119E+05   -0.52973E-03   -0.63950E-02 19888   0.152E-01    0.514E-01
DAV:   6    -0.107066134301E+05    0.14818E-02   -0.83385E-03 20160   0.882E-02    0.373E-01
DAV:   7    -0.107066123729E+05    0.10572E-02   -0.10359E-02 17216   0.572E-02    0.141E-01
DAV:   8    -0.107066124508E+05   -0.77848E-04   -0.19725E-03 17152   0.355E-02    0.973E-02
DAV:   9    -0.107066125404E+05   -0.89576E-04   -0.54446E-04 11680   0.199E-02
   52 T=  1475. E= -.10712459E+05 F= -.10706613E+05 E0= -.10706613E+05  EK= 0.29268E+03 SP= -.30E+03 SK= 0.69E-01
       N       E                     dE             d eps       ncg     rms          rms(c)
DAV:   1    -0.107074147652E+05   -0.80231E+00   -0.88164E+00 17360   0.103E+01    0.233E+00
DAV:   2    -0.107088981071E+05   -0.14833E+01   -0.15589E+01 18592   0.334E+00    0.145E+00
DAV:   3    -0.107089498431E+05   -0.51736E-01   -0.71900E-01 19712   0.532E-01    0.123E+00
DAV:   4    -0.107089363334E+05    0.13510E-01   -0.14596E-01 20208   0.266E-01    0.743E-01
DAV:   5    -0.107089382500E+05   -0.19167E-02   -0.63120E-02 19904   0.149E-01    0.545E-01
DAV:   6    -0.107089360035E+05    0.22466E-02   -0.85890E-03 19664   0.892E-02    0.390E-01
DAV:   7    -0.107089350391E+05    0.96436E-03   -0.13530E-02 17008   0.639E-02    0.144E-01
DAV:   8    -0.107089351167E+05   -0.77600E-04   -0.21916E-03 17360   0.383E-02    0.102E-01
DAV:   9    -0.107089352113E+05   -0.94653E-04   -0.91196E-04 13024   0.228E-02
   53 T=  1482. E= -.10712455E+05 F= -.10708935E+05 E0= -.10708935E+05  EK= 0.29404E+03 SP= -.30E+03 SK= 0.59E-01
       N       E                     dE             d eps       ncg     rms          rms(c)
DAV:   1    -0.107101327721E+05   -0.11977E+01   -0.86814E+00 17408   0.104E+01    0.229E+00
DAV:   2    -0.107116259180E+05   -0.14931E+01   -0.15611E+01 18608   0.332E+00    0.147E+00
DAV:   3    -0.107116737964E+05   -0.47878E-01   -0.70864E-01 19808   0.531E-01    0.126E+00
DAV:   4    -0.107116595949E+05    0.14201E-01   -0.14680E-01 20336   0.267E-01    0.747E-01
DAV:   5    -0.107116609150E+05   -0.13201E-02   -0.63593E-02 19872   0.149E-01    0.528E-01
DAV:   6    -0.107116590100E+05    0.19050E-02   -0.82950E-03 19952   0.892E-02    0.379E-01
DAV:   7    -0.107116580523E+05    0.95766E-03   -0.12483E-02 16928   0.613E-02    0.139E-01
DAV:   8    -0.107116581321E+05   -0.79765E-04   -0.20434E-03 17520   0.370E-02    0.102E-01
DAV:   9    -0.107116582410E+05   -0.10887E-03   -0.86202E-04 12896   0.217E-02    0.729E-02
DAV:  10    -0.107116581805E+05    0.60501E-04   -0.90958E-05  7856   0.159E-02
   54 T=  1491. E= -.10712450E+05 F= -.10711658E+05 E0= -.10711658E+05  EK= 0.29585E+03 SP= -.30E+03 SK= 0.56E-01
       N       E                     dE             d eps       ncg     rms          rms(c)
DAV:   1    -0.107127852909E+05   -0.11270E+01   -0.86934E+00 17440   0.104E+01    0.227E+00
DAV:   2    -0.107143054839E+05   -0.15202E+01   -0.15827E+01 18592   0.336E+00    0.149E+00
DAV:   3    -0.107143497894E+05   -0.44305E-01   -0.70801E-01 19776   0.532E-01    0.128E+00
DAV:   4    -0.107143350995E+05    0.14690E-01   -0.14489E-01 20304   0.264E-01    0.758E-01
DAV:   5    -0.107143351281E+05   -0.28623E-04   -0.65287E-02 19920   0.152E-01    0.494E-01
DAV:   6    -0.107143338000E+05    0.13281E-02   -0.85554E-03 20336   0.907E-02    0.361E-01
DAV:   7    -0.107143328600E+05    0.93996E-03   -0.97062E-03 17120   0.551E-02    0.135E-01
DAV:   8    -0.107143329372E+05   -0.77189E-04   -0.18387E-03 16912   0.341E-02    0.992E-02
DAV:   9    -0.107143330295E+05   -0.92334E-04   -0.52746E-04 11616   0.197E-02
   55 T=  1500. E= -.10712451E+05 F= -.10714333E+05 E0= -.10714333E+05  EK= 0.29761E+03 SP= -.30E+03 SK= 0.58E-01
       N       E                     dE             d eps       ncg     rms          rms(c)
DAV:   1    -0.107150118905E+05   -0.67895E+00   -0.85900E+00 17504   0.105E+01    0.232E+00
DAV:   2    -0.107165170593E+05   -0.15052E+01   -0.15802E+01 18576   0.338E+00    0.142E+00
DAV:   3    -0.107165708038E+05   -0.53744E-01   -0.74136E-01 19888   0.541E-01    0.123E+00
DAV:   4    -0.107165576328E+05    0.13171E-01   -0.14121E-01 20192   0.270E-01    0.728E-01
DAV:   5    -0.107165590802E+05   -0.14475E-02   -0.62588E-02 19792   0.147E-01    0.507E-01
DAV:   6    -0.107165571818E+05    0.18984E-02   -0.82893E-03 20096   0.900E-02    0.373E-01
DAV:   7    -0.107165562662E+05    0.91565E-03   -0.12542E-02 16960   0.616E-02    0.137E-01
DAV:   8    -0.107165563336E+05   -0.67388E-04   -0.21816E-03 17568   0.375E-02    0.102E-01
DAV:   9    -0.107165564376E+05   -0.10398E-03   -0.91732E-04 12832   0.226E-02    0.714E-02
DAV:  10    -0.107165563885E+05    0.49064E-04   -0.90153E-05  7808   0.162E-02
   56 T=  1506. E= -.10712458E+05 F= -.10716556E+05 E0= -.10716556E+05  EK= 0.29887E+03 SP= -.29E+03 SK= 0.65E-01
       N       E                     dE             d eps       ncg     rms          rms(c)
DAV:   1    -0.107164728873E+05    0.83550E-01   -0.84526E+00 17552   0.106E+01    0.224E+00
DAV:   2    -0.107179969465E+05   -0.15241E+01   -0.15831E+01 18592   0.335E+00    0.148E+00
DAV:   3    -0.107180414908E+05   -0.44544E-01   -0.70851E-01 19888   0.529E-01    0.126E+00
DAV:   4    -0.107180276738E+05    0.13817E-01   -0.14352E-01 20336   0.267E-01    0.741E-01
DAV:   5    -0.107180274144E+05    0.25943E-03   -0.60326E-02 19920   0.148E-01    0.471E-01
DAV:   6    -0.107180264672E+05    0.94714E-03   -0.82286E-03 20224   0.878E-02    0.353E-01
DAV:   7    -0.107180254291E+05    0.10381E-02   -0.82276E-03 17040   0.525E-02    0.141E-01
DAV:   8    -0.107180254850E+05   -0.55936E-04   -0.19660E-03 17392   0.339E-02    0.965E-02
DAV:   9    -0.107180255543E+05   -0.69232E-04   -0.32066E-04  9360   0.192E-02
   57 T=  1508. E= -.10712477E+05 F= -.10718026E+05 E0= -.10718026E+05  EK= 0.29929E+03 SP= -.29E+03 SK= 0.76E-01
       N       E                     dE             d eps       ncg     rms          rms(c)
DAV:   1    -0.107169895674E+05    0.10359E+01   -0.79796E+00 17504   0.104E+01    0.228E+00
DAV:   2    -0.107184511323E+05   -0.14616E+01   -0.15332E+01 18592   0.328E+00    0.137E+00
DAV:   3    -0.107185043435E+05   -0.53211E-01   -0.72229E-01 19920   0.530E-01    0.119E+00
DAV:   4    -0.107184923082E+05    0.12035E-01   -0.13506E-01 20288   0.268E-01    0.711E-01
DAV:   5    -0.107184932280E+05   -0.91984E-03   -0.58953E-02 19696   0.143E-01    0.484E-01
DAV:   6    -0.107184918235E+05    0.14045E-02   -0.79165E-03 20112   0.870E-02    0.372E-01
DAV:   7    -0.107184907554E+05    0.10681E-02   -0.10892E-02 16784   0.583E-02    0.140E-01
DAV:   8    -0.107184908175E+05   -0.62118E-04   -0.22396E-03 17520   0.363E-02    0.102E-01
DAV:   9    -0.107184909050E+05   -0.87458E-04   -0.76480E-04 12656   0.219E-02
   58 T=  1505. E= -.10712482E+05 F= -.10718491E+05 E0= -.10718491E+05  EK= 0.29865E+03 SP= -.29E+03 SK= 0.87E-01
       N       E                     dE             d eps       ncg     rms          rms(c)
DAV:   1    -0.107163227658E+05    0.21681E+01   -0.83380E+00 17424   0.104E+01    0.224E+00
DAV:   2    -0.107178333436E+05   -0.15106E+01   -0.15747E+01 18608   0.335E+00    0.140E+00
DAV:   3    -0.107178849762E+05   -0.51633E-01   -0.73845E-01 20032   0.533E-01    0.122E+00
DAV:   4    -0.107178728003E+05    0.12176E-01   -0.12983E-01 20688   0.262E-01    0.733E-01
DAV:   5    -0.107178718459E+05    0.95439E-03   -0.54443E-02 19456   0.139E-01    0.447E-01
DAV:   6    -0.107178711583E+05    0.68764E-03   -0.80270E-03 20112   0.834E-02    0.347E-01
DAV:   7    -0.107178702041E+05    0.95416E-03   -0.62785E-03 16912   0.473E-02    0.148E-01
DAV:   8    -0.107178702142E+05   -0.10068E-04   -0.19037E-03 17536   0.314E-02    0.995E-02
DAV:   9    -0.107178702696E+05   -0.55423E-04   -0.26323E-04  8704   0.190E-02
   59 T=  1496. E= -.10712445E+05 F= -.10717870E+05 E0= -.10717870E+05  EK= 0.29690E+03 SP= -.29E+03 SK= 0.94E-01
       N       E                     dE             d eps       ncg     rms          rms(c)
DAV:   1    -0.107150332616E+05    0.28370E+01   -0.87611E+00 17200   0.105E+01    0.224E+00
DAV:   2    -0.107165481839E+05   -0.15149E+01   -0.15787E+01 18592   0.339E+00    0.136E+00
DAV:   3    -0.107166035675E+05   -0.55384E-01   -0.75395E-01 20176   0.542E-01    0.117E+00
DAV:   4    -0.107165929591E+05    0.10608E-01   -0.12677E-01 20736   0.259E-01    0.709E-01
DAV:   5    -0.107165922474E+05    0.71163E-03   -0.48436E-02 19456   0.132E-01    0.436E-01
DAV:   6    -0.107165915796E+05    0.66780E-03   -0.75200E-03 19920   0.786E-02    0.338E-01
DAV:   7    -0.107165906907E+05    0.88898E-03   -0.60446E-03 17264   0.469E-02    0.142E-01
DAV:   8    -0.107165906967E+05   -0.59974E-05   -0.18153E-03 17456   0.314E-02    0.966E-02
DAV:   9    -0.107165907356E+05   -0.38905E-04   -0.21085E-04  7984   0.186E-02
   60 T=  1484. E= -.10712422E+05 F= -.10716591E+05 E0= -.10716591E+05  EK= 0.29448E+03 SP= -.29E+03 SK= 0.93E-01
       N       E                     dE             d eps       ncg     rms          rms(c)
DAV:   1    -0.107138348956E+05    0.27558E+01   -0.83156E+00 17504   0.103E+01    0.220E+00
DAV:   2    -0.107152755367E+05   -0.14406E+01   -0.15012E+01 18608   0.326E+00    0.135E+00
DAV:   3    -0.107153253813E+05   -0.49845E-01   -0.69200E-01 20112   0.518E-01    0.116E+00
DAV:   4    -0.107153143984E+05    0.10983E-01   -0.12272E-01 20640   0.253E-01    0.699E-01
DAV:   5    -0.107153140880E+05    0.31037E-03   -0.49194E-02 19696   0.133E-01    0.444E-01
DAV:   6    -0.107153131083E+05    0.97972E-03   -0.71170E-03 20016   0.803E-02    0.334E-01
DAV:   7    -0.107153122594E+05    0.84894E-03   -0.70428E-03 16832   0.486E-02    0.130E-01
DAV:   8    -0.107153123038E+05   -0.44415E-04   -0.16102E-03 16448   0.314E-02    0.947E-02
DAV:   9    -0.107153123536E+05   -0.49865E-04   -0.24608E-04  8432   0.184E-02
   61 T=  1472. E= -.10712400E+05 F= -.10715312E+05 E0= -.10715312E+05  EK= 0.29210E+03 SP= -.29E+03 SK= 0.82E-01
       N       E                     dE             d eps       ncg     rms          rms(c)
DAV:   1    -0.107131466262E+05    0.21657E+01   -0.77975E+00 17664   0.101E+01    0.216E+00
DAV:   2    -0.107145341223E+05   -0.13875E+01   -0.14463E+01 18528   0.321E+00    0.134E+00
DAV:   3    -0.107145843447E+05   -0.50222E-01   -0.69020E-01 20112   0.525E-01    0.116E+00
DAV:   4    -0.107145732216E+05    0.11123E-01   -0.12289E-01 20448   0.253E-01    0.698E-01
DAV:   5    -0.107145733197E+05   -0.98113E-04   -0.52508E-02 19728   0.137E-01    0.456E-01
DAV:   6    -0.107145721572E+05    0.11625E-02   -0.74067E-03 19936   0.831E-02    0.342E-01
DAV:   7    -0.107145712819E+05    0.87535E-03   -0.83267E-03 16880   0.517E-02    0.130E-01
DAV:   8    -0.107145713387E+05   -0.56818E-04   -0.16932E-03 16880   0.326E-02    0.957E-02
DAV:   9    -0.107145713999E+05   -0.61178E-04   -0.32989E-04  9168   0.189E-02
   62 T=  1463. E= -.10712388E+05 F= -.10714571E+05 E0= -.10714571E+05  EK= 0.29036E+03 SP= -.29E+03 SK= 0.64E-01
       N       E                     dE             d eps       ncg     rms          rms(c)
DAV:   1    -0.107131239417E+05    0.14474E+01   -0.74907E+00 17488   0.101E+01    0.213E+00
DAV:   2    -0.107144743284E+05   -0.13504E+01   -0.14092E+01 18608   0.318E+00    0.132E+00
DAV:   3    -0.107145214687E+05   -0.47140E-01   -0.65575E-01 20080   0.506E-01    0.114E+00
DAV:   4    -0.107145104718E+05    0.10997E-01   -0.11755E-01 20544   0.249E-01    0.695E-01
DAV:   5    -0.107145104140E+05    0.57779E-04   -0.52222E-02 19456   0.135E-01    0.451E-01
DAV:   6    -0.107145093091E+05    0.11050E-02   -0.74520E-03 19728   0.819E-02    0.343E-01
DAV:   7    -0.107145084129E+05    0.89621E-03   -0.83181E-03 17120   0.521E-02    0.132E-01
DAV:   8    -0.107145084613E+05   -0.48413E-04   -0.17399E-03 16688   0.325E-02    0.960E-02
DAV:   9    -0.107145085314E+05   -0.70125E-04   -0.45969E-04 10720   0.198E-02
   63 T=  1459. E= -.10712400E+05 F= -.10714509E+05 E0= -.10714509E+05  EK= 0.28941E+03 SP= -.29E+03 SK= 0.45E-01
       N       E                     dE             d eps       ncg     rms          rms(c)
DAV:   1    -0.107135747392E+05    0.93372E+00   -0.73907E+00 17648   0.100E+01    0.211E+00
DAV:   2    -0.107149036366E+05   -0.13289E+01   -0.13886E+01 18592   0.314E+00    0.133E+00
DAV:   3    -0.107149504138E+05   -0.46777E-01   -0.65723E-01 20048   0.505E-01    0.116E+00
DAV:   4    -0.107149390664E+05    0.11347E-01   -0.11740E-01 20448   0.250E-01    0.703E-01
DAV:   5    -0.107149388038E+05    0.26260E-03   -0.55613E-02 19392   0.138E-01    0.451E-01
DAV:   6    -0.107149376718E+05    0.11320E-02   -0.79375E-03 20032   0.846E-02    0.347E-01
DAV:   7    -0.107149367537E+05    0.91812E-03   -0.84720E-03 17376   0.522E-02    0.136E-01
DAV:   8    -0.107149368062E+05   -0.52475E-04   -0.17367E-03 16816   0.322E-02    0.982E-02
DAV:   9    -0.107149368807E+05   -0.74494E-04   -0.48090E-04 11248   0.193E-02
   64 T=  1457. E= -.10712407E+05 F= -.10714937E+05 E0= -.10714937E+05  EK= 0.28912E+03 SP= -.29E+03 SK= 0.28E-01
       N       E                     dE             d eps       ncg     rms          rms(c)
DAV:   1    -0.107143839155E+05    0.55289E+00   -0.71667E+00 17872   0.997E+00    0.213E+00
DAV:   2    -0.107156873436E+05   -0.13034E+01   -0.13648E+01 18576   0.311E+00    0.137E+00
DAV:   3    -0.107157324054E+05   -0.45062E-01   -0.64439E-01 20000   0.499E-01    0.118E+00
DAV:   4    -0.107157198471E+05    0.12558E-01   -0.12353E-01 20256   0.253E-01    0.713E-01
DAV:   5    -0.107157206384E+05   -0.79136E-03   -0.62699E-02 19600   0.146E-01    0.491E-01
DAV:   6    -0.107157188429E+05    0.17956E-02   -0.87544E-03 19840   0.909E-02    0.367E-01
DAV:   7    -0.107157179249E+05    0.91795E-03   -0.11772E-02 17328   0.594E-02    0.136E-01
DAV:   8    -0.107157179941E+05   -0.69180E-04   -0.18807E-03 17280   0.356E-02    0.101E-01
DAV:   9    -0.107157181052E+05   -0.11107E-03   -0.80562E-04 12960   0.207E-02    0.780E-02
DAV:  10    -0.107157180432E+05    0.61989E-04   -0.78540E-05  7744   0.149E-02
   65 T=  1458. E= -.10712417E+05 F= -.10715718E+05 E0= -.10715718E+05  EK= 0.28935E+03 SP= -.29E+03 SK= 0.15E-01
       N       E                     dE             d eps       ncg     rms          rms(c)
DAV:   1    -0.107153238607E+05    0.39424E+00   -0.73293E+00 17376   0.101E+01    0.211E+00
DAV:   2    -0.107166696209E+05   -0.13458E+01   -0.14014E+01 18608   0.317E+00    0.145E+00
DAV:   3    -0.107167102967E+05   -0.40676E-01   -0.64815E-01 20080   0.505E-01    0.124E+00
DAV:   4    -0.107166961063E+05    0.14190E-01   -0.13286E-01 20224   0.256E-01    0.740E-01
DAV:   5    -0.107166964828E+05   -0.37651E-03   -0.65191E-02 19744   0.149E-01    0.499E-01
DAV:   6    -0.107166948500E+05    0.16327E-02   -0.87757E-03 20080   0.924E-02    0.368E-01
DAV:   7    -0.107166938399E+05    0.10102E-02   -0.11229E-02 17216   0.584E-02    0.138E-01
DAV:   8    -0.107166939275E+05   -0.87648E-04   -0.19179E-03 17488   0.357E-02    0.102E-01
DAV:   9    -0.107166940404E+05   -0.11291E-03   -0.67523E-04 12896   0.196E-02    0.810E-02
DAV:  10    -0.107166939615E+05    0.78971E-04   -0.69312E-05  7808   0.149E-02
   66 T=  1461. E= -.10712443E+05 F= -.10716694E+05 E0= -.10716694E+05  EK= 0.28993E+03 SP= -.29E+03 SK= 0.63E-02
       N       E                     dE             d eps       ncg     rms          rms(c)
DAV:   1    -0.107162611502E+05    0.43289E+00   -0.75224E+00 17264   0.101E+01    0.215E+00
DAV:   2    -0.107176226098E+05   -0.13615E+01   -0.14238E+01 18592   0.322E+00    0.139E+00
DAV:   3    -0.107176659817E+05   -0.43372E-01   -0.65917E-01 19984   0.512E-01    0.121E+00
DAV:   4    -0.107176529460E+05    0.13036E-01   -0.12407E-01 20368   0.252E-01    0.729E-01
DAV:   5    -0.107176524505E+05    0.49551E-03   -0.61185E-02 19712   0.145E-01    0.461E-01
DAV:   6    -0.107176514983E+05    0.95223E-03   -0.85352E-03 20064   0.886E-02    0.356E-01
DAV:   7    -0.107176504517E+05    0.10466E-02   -0.85672E-03 16896   0.532E-02    0.144E-01
DAV:   8    -0.107176504956E+05   -0.43927E-04   -0.20168E-03 17248   0.340E-02    0.991E-02
DAV:   9    -0.107176505522E+05   -0.56567E-04   -0.40446E-04 10336   0.203E-02
   67 T=  1465. E= -.10712448E+05 F= -.10717651E+05 E0= -.10717651E+05  EK= 0.29065E+03 SP= -.29E+03 SK= 0.17E-02
       N       E                     dE             d eps       ncg     rms          rms(c)
DAV:   1    -0.107171080693E+05    0.54243E+00   -0.74486E+00 17280   0.102E+01    0.222E+00
DAV:   2    -0.107184719507E+05   -0.13639E+01   -0.14368E+01 18560   0.325E+00    0.134E+00
DAV:   3    -0.107185204373E+05   -0.48487E-01   -0.67951E-01 19824   0.526E-01    0.118E+00
DAV:   4    -0.107185083963E+05    0.12041E-01   -0.12142E-01 20272   0.254E-01    0.714E-01
DAV:   5    -0.107185081276E+05    0.26871E-03   -0.58389E-02 19568   0.143E-01    0.452E-01
DAV:   6    -0.107185072759E+05    0.85174E-03   -0.82174E-03 20048   0.854E-02    0.358E-01
DAV:   7    -0.107185062488E+05    0.10271E-02   -0.86081E-03 17072   0.537E-02    0.148E-01
DAV:   8    -0.107185062753E+05   -0.26489E-04   -0.22475E-03 17616   0.345E-02    0.106E-01
DAV:   9    -0.107185063129E+05   -0.37574E-04   -0.67308E-04 12656   0.221E-02
   68 T=  1469. E= -.10712459E+05 F= -.10718506E+05 E0= -.10718506E+05  EK= 0.29140E+03 SP= -.29E+03 SK= 0.74E-04
       N       E                     dE             d eps       ncg     rms          rms(c)
DAV:   1    -0.107176966127E+05    0.80966E+00   -0.78188E+00 17344   0.103E+01    0.222E+00
DAV:   2    -0.107191219844E+05   -0.14254E+01   -0.14955E+01 18624   0.330E+00    0.147E+00
DAV:   3    -0.107191669345E+05   -0.44950E-01   -0.69158E-01 19824   0.524E-01    0.128E+00
DAV:   4    -0.107191518896E+05    0.15045E-01   -0.13715E-01 20256   0.261E-01    0.767E-01
DAV:   5    -0.107191520183E+05   -0.12862E-03   -0.71098E-02 19584   0.157E-01    0.502E-01
DAV:   6    -0.107191506193E+05    0.13990E-02   -0.97146E-03 20064   0.946E-02    0.385E-01
DAV:   7    -0.107191495155E+05    0.11038E-02   -0.10743E-02 17376   0.579E-02    0.157E-01
DAV:   8    -0.107191495590E+05   -0.43489E-04   -0.20256E-03 17472   0.349E-02    0.112E-01
DAV:   9    -0.107191496465E+05   -0.87476E-04   -0.68454E-04 12896   0.211E-02
   69 T=  1472. E= -.10712449E+05 F= -.10719150E+05 E0= -.10719150E+05  EK= 0.29208E+03 SP= -.29E+03 SK= 0.38E-03
       N       E                     dE             d eps       ncg     rms          rms(c)
DAV:   1    -0.107181991615E+05    0.95040E+00   -0.82490E+00 17360   0.105E+01    0.229E+00
DAV:   2    -0.107196537978E+05   -0.14546E+01   -0.15315E+01 18624   0.334E+00    0.151E+00
DAV:   3    -0.107197008028E+05   -0.47005E-01   -0.71351E-01 19888   0.531E-01    0.131E+00
DAV:   4    -0.107196842976E+05    0.16505E-01   -0.14856E-01 20032   0.271E-01    0.777E-01
DAV:   5    -0.107196857398E+05   -0.14422E-02   -0.80448E-02 19680   0.166E-01    0.547E-01
DAV:   6    -0.107196835451E+05    0.21947E-02   -0.11306E-02 19712   0.102E-01    0.411E-01
DAV:   7    -0.107196823975E+05    0.11476E-02   -0.14186E-02 18400   0.648E-02    0.163E-01
DAV:   8    -0.107196824490E+05   -0.51501E-04   -0.18996E-03 17520   0.362E-02    0.115E-01
DAV:   9    -0.107196825481E+05   -0.99060E-04   -0.66166E-04 12704   0.201E-02
   70 T=  1475. E= -.10712434E+05 F= -.10719683E+05 E0= -.10719683E+05  EK= 0.29274E+03 SP= -.29E+03 SK= 0.19E-02
       N       E                     dE             d eps       ncg     rms          rms(c)
DAV:   1    -0.107187768009E+05    0.90565E+00   -0.83080E+00 17520   0.105E+01    0.228E+00
DAV:   2    -0.107202462316E+05   -0.14694E+01   -0.15434E+01 18608   0.334E+00    0.148E+00
DAV:   3    -0.107202941749E+05   -0.47943E-01   -0.71873E-01 19872   0.531E-01    0.128E+00
DAV:   4    -0.107202787811E+05    0.15394E-01   -0.14135E-01 20336   0.266E-01    0.766E-01
DAV:   5    -0.107202792039E+05   -0.42272E-03   -0.73423E-02 19824   0.160E-01    0.513E-01
DAV:   6    -0.107202777140E+05    0.14898E-02   -0.10243E-02 19840   0.968E-02    0.392E-01
DAV:   7    -0.107202765627E+05    0.11513E-02   -0.11061E-02 17504   0.585E-02    0.158E-01
DAV:   8    -0.107202766081E+05   -0.45419E-04   -0.19471E-03 17456   0.353E-02    0.110E-01
DAV:   9    -0.107202766930E+05   -0.84805E-04   -0.56134E-04 12240   0.200E-02
   71 T=  1480. E= -.10712414E+05 F= -.10720277E+05 E0= -.10720277E+05  EK= 0.29356E+03 SP= -.29E+03 SK= 0.40E-02
       N       E                     dE             d eps       ncg     rms          rms(c)
DAV:   1    -0.107195218269E+05    0.75478E+00   -0.81232E+00 17680   0.105E+01    0.225E+00
DAV:   2    -0.107209669211E+05   -0.14451E+01   -0.15149E+01 18624   0.328E+00    0.141E+00
DAV:   3    -0.107210153413E+05   -0.48420E-01   -0.70761E-01 19968   0.521E-01    0.123E+00
DAV:   4    -0.107210018372E+05    0.13504E-01   -0.12803E-01 20352   0.257E-01    0.742E-01
DAV:   5    -0.107210010854E+05    0.75178E-03   -0.61137E-02 19616   0.147E-01    0.461E-01
DAV:   6    -0.107210003085E+05    0.77692E-03   -0.90636E-03 20048   0.891E-02    0.362E-01
DAV:   7    -0.107209992634E+05    0.10451E-02   -0.73318E-03 17152   0.501E-02    0.154E-01
DAV:   8    -0.107209992625E+05    0.85938E-06   -0.20789E-03 17376   0.328E-02    0.102E-01
DAV:   9    -0.107209993146E+05   -0.52064E-04   -0.29639E-04  8992   0.198E-02
   72 T=  1485. E= -.10712413E+05 F= -.10720999E+05 E0= -.10720999E+05  EK= 0.29455E+03 SP= -.29E+03 SK= 0.59E-02
       N       E                     dE             d eps       ncg     rms          rms(c)
DAV:   1    -0.107203294853E+05    0.66978E+00   -0.81262E+00 17664   0.105E+01    0.222E+00
DAV:   2    -0.107217556681E+05   -0.14262E+01   -0.14928E+01 18608   0.324E+00    0.133E+00
DAV:   3    -0.107218058056E+05   -0.50137E-01   -0.70613E-01 20096   0.518E-01    0.118E+00
DAV:   4    -0.107217943920E+05    0.11414E-01   -0.11554E-01 20704   0.249E-01    0.720E-01
DAV:   5    -0.107217927377E+05    0.16543E-02   -0.51612E-02 19440   0.135E-01    0.417E-01
DAV:   6    -0.107217925079E+05    0.22979E-03   -0.87468E-03 19776   0.824E-02    0.333E-01
DAV:   7    -0.107217916002E+05    0.90771E-03   -0.49802E-03 16928   0.445E-02    0.154E-01
DAV:   8    -0.107217915334E+05    0.66804E-04   -0.23124E-03 17312   0.319E-02    0.919E-02
DAV:   9    -0.107217915651E+05   -0.31670E-04   -0.23798E-04  8368   0.204E-02
   73 T=  1490. E= -.10712444E+05 F= -.10721792E+05 E0= -.10721792E+05  EK= 0.29562E+03 SP= -.29E+03 SK= 0.70E-02
       N       E                     dE             d eps       ncg     rms          rms(c)
DAV:   1    -0.107208827004E+05    0.90883E+00   -0.84310E+00 17376   0.105E+01    0.221E+00
DAV:   2    -0.107223413744E+05   -0.14587E+01   -0.15228E+01 18576   0.331E+00    0.131E+00
DAV:   3    -0.107223939438E+05   -0.52569E-01   -0.72692E-01 20096   0.527E-01    0.116E+00
DAV:   4    -0.107223836273E+05    0.10317E-01   -0.11343E-01 20704   0.249E-01    0.718E-01
DAV:   5    -0.107223817126E+05    0.19147E-02   -0.48616E-02 19312   0.130E-01    0.408E-01
DAV:   6    -0.107223815035E+05    0.20913E-03   -0.83436E-03 19808   0.799E-02    0.318E-01
DAV:   7    -0.107223807201E+05    0.78340E-03   -0.44011E-03 16880   0.424E-02    0.146E-01
DAV:   8    -0.107223806789E+05    0.41236E-04   -0.19819E-03 17104   0.299E-02    0.883E-02
DAV:   9    -0.107223807120E+05   -0.33151E-04   -0.20967E-04  8240   0.194E-02
   74 T=  1494. E= -.10712467E+05 F= -.10722381E+05 E0= -.10722381E+05  EK= 0.29650E+03 SP= -.29E+03 SK= 0.69E-02
       N       E                     dE             d eps       ncg     rms          rms(c)
DAV:   1    -0.107209261818E+05    0.14545E+01   -0.82938E+00 17552   0.104E+01    0.222E+00
DAV:   2    -0.107223727549E+05   -0.14466E+01   -0.15128E+01 18624   0.331E+00    0.133E+00
DAV:   3    -0.107224236244E+05   -0.50870E-01   -0.71221E-01 19984   0.525E-01    0.117E+00
DAV:   4    -0.107224126253E+05    0.10999E-01   -0.11642E-01 20704   0.249E-01    0.722E-01
DAV:   5    -0.107224111751E+05    0.14503E-02   -0.53272E-02 19568   0.136E-01    0.425E-01
DAV:   6    -0.107224107264E+05    0.44869E-03   -0.78805E-03 19728   0.820E-02    0.327E-01
DAV:   7    -0.107224098744E+05    0.85196E-03   -0.58814E-03 17024   0.466E-02    0.139E-01
DAV:   8    -0.107224098849E+05   -0.10458E-04   -0.18919E-03 17088   0.310E-02    0.922E-02
DAV:   9    -0.107224099186E+05   -0.33678E-04   -0.25189E-04  8336   0.202E-02
   75 T=  1496. E= -.10712496E+05 F= -.10722410E+05 E0= -.10722410E+05  EK= 0.29682E+03 SP= -.29E+03 SK= 0.62E-02
       N       E                     dE             d eps       ncg     rms          rms(c)
DAV:   1    -0.107200897970E+05    0.23201E+01   -0.82000E+00 17632   0.104E+01    0.225E+00
DAV:   2    -0.107215178823E+05   -0.14281E+01   -0.14979E+01 18624   0.326E+00    0.137E+00
[...]
  131 T=  1428. E= -.10712488E+05 F= -.10707813E+05 E0= -.10707813E+05  EK= 0.28328E+03 SP= -.29E+03 SK= 0.61E-01
       N       E                     dE             d eps       ncg     rms          rms(c)
DAV:   1    -0.107069049869E+05    0.90818E+00   -0.88662E+00 17344   0.103E+01    0.227E+00
DAV:   2    -0.107084086163E+05   -0.15036E+01   -0.15683E+01 18576   0.334E+00    0.150E+00
DAV:   3    -0.107084566383E+05   -0.48022E-01   -0.75831E-01 20192   0.551E-01    0.131E+00
DAV:   4    -0.107084415672E+05    0.15071E-01   -0.15098E-01 20464   0.273E-01    0.767E-01
DAV:   5    -0.107084410009E+05    0.56624E-03   -0.69784E-02 19808   0.156E-01    0.483E-01
DAV:   6    -0.107084400798E+05    0.92118E-03   -0.97447E-03 19856   0.927E-02    0.372E-01
DAV:   7    -0.107084389590E+05    0.11207E-02   -0.83088E-03 17392   0.526E-02    0.156E-01
DAV:   8    -0.107084389918E+05   -0.32733E-04   -0.19018E-03 17648   0.333E-02    0.105E-01
DAV:   9    -0.107084390527E+05   -0.60940E-04   -0.21314E-04  8064   0.184E-02
  132 T=  1436. E= -.10712490E+05 F= -.10708439E+05 E0= -.10708439E+05  EK= 0.28496E+03 SP= -.29E+03 SK= 0.11E+00
       N       E                     dE             d eps       ncg     rms          rms(c)
DAV:   1    -0.107079791650E+05    0.45983E+00   -0.84594E+00 17152   0.102E+01    0.234E+00
DAV:   2    -0.107094261199E+05   -0.14470E+01   -0.15267E+01 18576   0.327E+00    0.134E+00
DAV:   3    -0.107094833560E+05   -0.57236E-01   -0.76282E-01 20000   0.543E-01    0.119E+00
DAV:   4    -0.107094715129E+05    0.11843E-01   -0.13378E-01 20560   0.266E-01    0.702E-01
DAV:   5    -0.107094718002E+05   -0.28736E-03   -0.57943E-02 19760   0.141E-01    0.459E-01
DAV:   6    -0.107094708615E+05    0.93874E-03   -0.79143E-03 19760   0.836E-02    0.359E-01
DAV:   7    -0.107094698062E+05    0.10553E-02   -0.88615E-03 16672   0.541E-02    0.143E-01
DAV:   8    -0.107094698501E+05   -0.43911E-04   -0.23600E-03 17616   0.352E-02    0.992E-02
DAV:   9    -0.107094698966E+05   -0.46513E-04   -0.64828E-04 12688   0.218E-02
  133 T=  1448. E= -.10712491E+05 F= -.10709470E+05 E0= -.10709470E+05  EK= 0.28731E+03 SP= -.29E+03 SK= 0.15E+00
       N       E                     dE             d eps       ncg     rms          rms(c)
DAV:   1    -0.107093116795E+05    0.15817E+00   -0.87751E+00 17152   0.103E+01    0.224E+00
DAV:   2    -0.107108271507E+05   -0.15155E+01   -0.15785E+01 18608   0.333E+00    0.141E+00
DAV:   3    -0.107108792053E+05   -0.52055E-01   -0.75828E-01 20080   0.543E-01    0.124E+00
DAV:   4    -0.107108672327E+05    0.11973E-01   -0.13328E-01 20720   0.264E-01    0.735E-01
DAV:   5    -0.107108658246E+05    0.14081E-02   -0.53190E-02 19920   0.137E-01    0.434E-01
DAV:   6    -0.107108653047E+05    0.51989E-03   -0.78329E-03 19920   0.821E-02    0.329E-01
DAV:   7    -0.107108644761E+05    0.82854E-03   -0.49712E-03 16976   0.430E-02    0.143E-01
DAV:   8    -0.107108644655E+05    0.10659E-04   -0.17566E-03 17248   0.294E-02    0.883E-02
DAV:   9    -0.107108645110E+05   -0.45497E-04   -0.17283E-04  8080   0.178E-02
  134 T=  1463. E= -.10712506E+05 F= -.10710865E+05 E0= -.10710865E+05  EK= 0.29024E+03 SP= -.29E+03 SK= 0.19E+00
       N       E                     dE             d eps       ncg     rms          rms(c)
DAV:   1    -0.107108937970E+05   -0.29331E-01   -0.88040E+00 17040   0.103E+01    0.233E+00
DAV:   2    -0.107124406486E+05   -0.15469E+01   -0.16174E+01 18592   0.340E+00    0.137E+00
DAV:   3    -0.107124956660E+05   -0.55017E-01   -0.77224E-01 19952   0.550E-01    0.122E+00
DAV:   4    -0.107124844344E+05    0.11232E-01   -0.12937E-01 20752   0.260E-01    0.728E-01
DAV:   5    -0.107124829312E+05    0.15032E-02   -0.53121E-02 19872   0.137E-01    0.422E-01
DAV:   6    -0.107124827086E+05    0.22258E-03   -0.83607E-03 19760   0.817E-02    0.327E-01
DAV:   7    -0.107124818411E+05    0.86753E-03   -0.50968E-03 17904   0.445E-02    0.147E-01
DAV:   8    -0.107124817917E+05    0.49364E-04   -0.18850E-03 17328   0.307E-02    0.860E-02
DAV:   9    -0.107124818246E+05   -0.32917E-04   -0.18060E-04  8080   0.180E-02
  135 T=  1479. E= -.10712549E+05 F= -.10712482E+05 E0= -.10712482E+05  EK= 0.29352E+03 SP= -.29E+03 SK= 0.22E+00
       N       E                     dE             d eps       ncg     rms          rms(c)
DAV:   1    -0.107123476298E+05    0.13416E+00   -0.93167E+00 17024   0.105E+01    0.232E+00
DAV:   2    -0.107139601163E+05   -0.16125E+01   -0.16794E+01 18608   0.349E+00    0.139E+00
DAV:   3    -0.107140167136E+05   -0.56597E-01   -0.79231E-01 20112   0.554E-01    0.122E+00
DAV:   4    -0.107140054213E+05    0.11292E-01   -0.13092E-01 20704   0.263E-01    0.733E-01
DAV:   5    -0.107140039373E+05    0.14840E-02   -0.50382E-02 19824   0.135E-01    0.429E-01
DAV:   6    -0.107140035772E+05    0.36007E-03   -0.79055E-03 19936   0.804E-02    0.322E-01
DAV:   7    -0.107140027870E+05    0.79019E-03   -0.46984E-03 17696   0.424E-02    0.144E-01
DAV:   8    -0.107140027539E+05    0.33142E-04   -0.16652E-03 17232   0.292E-02    0.859E-02
DAV:   9    -0.107140027913E+05   -0.37407E-04   -0.15716E-04  8000   0.165E-02
  136 T=  1496. E= -.10712597E+05 F= -.10714003E+05 E0= -.10714003E+05  EK= 0.29678E+03 SP= -.30E+03 SK= 0.22E+00
       N       E                     dE             d eps       ncg     rms          rms(c)
DAV:   1    -0.107132133292E+05    0.78942E+00   -0.94473E+00 17104   0.106E+01    0.235E+00
DAV:   2    -0.107148473750E+05   -0.16340E+01   -0.17038E+01 18512   0.353E+00    0.138E+00
DAV:   3    -0.107149090511E+05   -0.61676E-01   -0.84062E-01 20016   0.577E-01    0.122E+00
DAV:   4    -0.107148979319E+05    0.11119E-01   -0.12399E-01 20800   0.261E-01    0.746E-01
DAV:   5    -0.107148955384E+05    0.23935E-02   -0.48970E-02 19472   0.133E-01    0.417E-01
DAV:   6    -0.107148954514E+05    0.86986E-04   -0.87052E-03 20032   0.804E-02    0.318E-01
DAV:   7    -0.107148947383E+05    0.71309E-03   -0.37558E-03 18096   0.397E-02    0.154E-01
DAV:   8    -0.107148946531E+05    0.85242E-04   -0.16099E-03 17184   0.282E-02    0.866E-02
DAV:   9    -0.107148946840E+05   -0.30847E-04   -0.14066E-04  8048   0.161E-02
  137 T=  1509. E= -.10712655E+05 F= -.10714895E+05 E0= -.10714895E+05  EK= 0.29941E+03 SP= -.30E+03 SK= 0.21E+00
       N       E                     dE             d eps       ncg     rms          rms(c)
DAV:   1    -0.107129159548E+05    0.19787E+01   -0.95490E+00 17296   0.106E+01    0.236E+00
DAV:   2    -0.107145736952E+05   -0.16577E+01   -0.17277E+01 18608   0.353E+00    0.140E+00
DAV:   3    -0.107146322176E+05   -0.58522E-01   -0.81190E-01 19968   0.557E-01    0.123E+00
DAV:   4    -0.107146210725E+05    0.11145E-01   -0.12691E-01 20784   0.259E-01    0.751E-01
DAV:   5    -0.107146187681E+05    0.23044E-02   -0.48375E-02 19728   0.134E-01    0.423E-01
DAV:   6    -0.107146185562E+05    0.21193E-03   -0.82142E-03 20016   0.793E-02    0.319E-01
DAV:   7    -0.107146178679E+05    0.68831E-03   -0.36173E-03 17488   0.390E-02    0.151E-01
DAV:   8    -0.107146177978E+05    0.70082E-04   -0.16911E-03 17360   0.280E-02    0.865E-02
DAV:   9    -0.107146178302E+05   -0.32412E-04   -0.15068E-04  8016   0.169E-02
  138 T=  1516. E= -.10712689E+05 F= -.10714618E+05 E0= -.10714618E+05  EK= 0.30082E+03 SP= -.30E+03 SK= 0.19E+00
       N       E                     dE             d eps       ncg     rms          rms(c)
DAV:   1    -0.107112442293E+05    0.33736E+01   -0.99113E+00 17008   0.107E+01    0.239E+00
DAV:   2    -0.107129511901E+05   -0.17070E+01   -0.17782E+01 18608   0.361E+00    0.142E+00
DAV:   3    -0.107130140724E+05   -0.62882E-01   -0.85016E-01 19904   0.561E-01    0.123E+00
DAV:   4    -0.107130026261E+05    0.11446E-01   -0.13418E-01 20832   0.265E-01    0.748E-01
DAV:   5    -0.107130010855E+05    0.15407E-02   -0.50892E-02 19696   0.137E-01    0.439E-01
DAV:   6    -0.107130005973E+05    0.48813E-03   -0.77975E-03 20000   0.799E-02    0.331E-01
DAV:   7    -0.107129998454E+05    0.75190E-03   -0.45494E-03 17248   0.418E-02    0.146E-01
DAV:   8    -0.107129998252E+05    0.20266E-04   -0.16626E-03 17168   0.287E-02    0.919E-02
DAV:   9    -0.107129998657E+05   -0.40517E-04   -0.17426E-04  8080   0.173E-02
  139 T=  1516. E= -.10712699E+05 F= -.10713000E+05 E0= -.10713000E+05  EK= 0.30081E+03 SP= -.30E+03 SK= 0.16E+00
       N       E                     dE             d eps       ncg     rms          rms(c)
DAV:   1    -0.107084778065E+05    0.45220E+01   -0.10628E+01 16992   0.108E+01    0.242E+00
DAV:   2    -0.107102257184E+05   -0.17479E+01   -0.18204E+01 18640   0.367E+00    0.144E+00
DAV:   3    -0.107102915266E+05   -0.65808E-01   -0.88271E-01 20048   0.576E-01    0.125E+00
DAV:   4    -0.107102798132E+05    0.11713E-01   -0.14526E-01 20704   0.274E-01    0.752E-01
DAV:   5    -0.107102790647E+05    0.74849E-03   -0.54254E-02 19760   0.142E-01    0.459E-01
DAV:   6    -0.107102783632E+05    0.70145E-03   -0.79869E-03 19952   0.824E-02    0.347E-01
DAV:   7    -0.107102775266E+05    0.83667E-03   -0.58284E-03 17152   0.459E-02    0.147E-01
DAV:   8    -0.107102775271E+05   -0.58440E-06   -0.17717E-03 17120   0.307E-02    0.988E-02
DAV:   9    -0.107102775775E+05   -0.50359E-04   -0.25605E-04  8576   0.189E-02
  140 T=  1510. E= -.10712692E+05 F= -.10710278E+05 E0= -.10710278E+05  EK= 0.29959E+03 SP= -.30E+03 SK= 0.14E+00
       N       E                     dE             d eps       ncg     rms          rms(c)
DAV:   1    -0.107051960156E+05    0.50815E+01   -0.11262E+01 16960   0.109E+01    0.241E+00
DAV:   2    -0.107069524350E+05   -0.17564E+01   -0.18250E+01 18592   0.370E+00    0.143E+00
DAV:   3    -0.107070188576E+05   -0.66423E-01   -0.88268E-01 20336   0.582E-01    0.123E+00
DAV:   4    -0.107070081620E+05    0.10696E-01   -0.14730E-01 20720   0.276E-01    0.740E-01
DAV:   5    -0.107070076997E+05    0.46221E-03   -0.50037E-02 19840   0.138E-01    0.457E-01
DAV:   6    -0.107070069757E+05    0.72400E-03   -0.73415E-03 20192   0.791E-02    0.337E-01
DAV:   7    -0.107070062249E+05    0.75082E-03   -0.53677E-03 17120   0.439E-02    0.139E-01
DAV:   8    -0.107070062325E+05   -0.75742E-05   -0.14837E-03 16320   0.292E-02    0.963E-02
DAV:   9    -0.107070062772E+05   -0.44693E-04   -0.21023E-04  8192   0.176E-02
  141 T=  1500. E= -.10712703E+05 F= -.10707006E+05 E0= -.10707006E+05  EK= 0.29771E+03 SP= -.30E+03 SK= 0.13E+00
       N       E                     dE             d eps       ncg     rms          rms(c)
DAV:   1    -0.107018685705E+05    0.51377E+01   -0.10906E+01 16928   0.109E+01    0.237E+00
DAV:   2    -0.107035852253E+05   -0.17167E+01   -0.17832E+01 18624   0.365E+00    0.138E+00
DAV:   3    -0.107036485643E+05   -0.63339E-01   -0.84818E-01 20432   0.576E-01    0.119E+00
DAV:   4    -0.107036389574E+05    0.96069E-02   -0.13362E-01 20768   0.267E-01    0.727E-01
DAV:   5    -0.107036375956E+05    0.13619E-02   -0.44485E-02 19792   0.130E-01    0.424E-01
DAV:   6    -0.107036372872E+05    0.30836E-03   -0.76384E-03 20320   0.769E-02    0.316E-01
DAV:   7    -0.107036366362E+05    0.65105E-03   -0.37949E-03 17664   0.391E-02    0.143E-01
DAV:   8    -0.107036365844E+05    0.51791E-04   -0.13880E-03 16944   0.273E-02    0.895E-02
DAV:   9    -0.107036366122E+05   -0.27783E-04   -0.15668E-04  7984   0.160E-02
  142 T=  1490. E= -.10712705E+05 F= -.10703637E+05 E0= -.10703637E+05  EK= 0.29569E+03 SP= -.30E+03 SK= 0.12E+00
       N       E                     dE             d eps       ncg     rms          rms(c)
DAV:   1    -0.106987713326E+05    0.48653E+01   -0.10273E+01 16976   0.107E+01    0.234E+00
DAV:   2    -0.107004110131E+05   -0.16397E+01   -0.17062E+01 18640   0.354E+00    0.138E+00
DAV:   3    -0.107004673828E+05   -0.56370E-01   -0.78314E-01 20112   0.560E-01    0.120E+00
DAV:   4    -0.107004570737E+05    0.10309E-01   -0.13238E-01 20688   0.262E-01    0.727E-01
DAV:   5    -0.107004558246E+05    0.12491E-02   -0.46947E-02 19728   0.133E-01    0.426E-01
DAV:   6    -0.107004554244E+05    0.40024E-03   -0.75975E-03 20160   0.779E-02    0.320E-01
DAV:   7    -0.107004547053E+05    0.71904E-03   -0.42840E-03 17584   0.408E-02    0.143E-01
DAV:   8    -0.107004546660E+05    0.39349E-04   -0.15163E-03 17216   0.282E-02    0.893E-02
DAV:   9    -0.107004546954E+05   -0.29381E-04   -0.16117E-04  7968   0.164E-02
  143 T=  1481. E= -.10712709E+05 F= -.10700455E+05 E0= -.10700455E+05  EK= 0.29385E+03 SP= -.31E+03 SK= 0.13E+00
       N       E                     dE             d eps       ncg     rms          rms(c)
DAV:   1    -0.106960728937E+05    0.43818E+01   -0.98646E+00 17312   0.105E+01    0.237E+00
DAV:   2    -0.106976534730E+05   -0.15806E+01   -0.16526E+01 18624   0.342E+00    0.144E+00
DAV:   3    -0.106977069087E+05   -0.53436E-01   -0.76268E-01 20112   0.551E-01    0.126E+00
DAV:   4    -0.106976939178E+05    0.12991E-01   -0.14380E-01 20416   0.272E-01    0.740E-01
DAV:   5    -0.106976938998E+05    0.18070E-04   -0.57527E-02 19824   0.144E-01    0.471E-01
DAV:   6    -0.106976928907E+05    0.10090E-02   -0.81394E-03 19984   0.863E-02    0.357E-01
DAV:   7    -0.106976918926E+05    0.99807E-03   -0.74816E-03 16976   0.501E-02    0.145E-01
DAV:   8    -0.106976919189E+05   -0.26277E-04   -0.19012E-03 17808   0.327E-02    0.975E-02
DAV:   9    -0.106976919666E+05   -0.47696E-04   -0.22681E-04  8336   0.180E-02
  144 T=  1474. E= -.10712727E+05 F= -.10697692E+05 E0= -.10697692E+05  EK= 0.29247E+03 SP= -.31E+03 SK= 0.14E+00
       N       E                     dE             d eps       ncg     rms          rms(c)
DAV:   1    -0.106938662912E+05    0.38256E+01   -0.95566E+00 17152   0.104E+01    0.240E+00
DAV:   2    -0.106954360968E+05   -0.15698E+01   -0.16465E+01 18576   0.341E+00    0.152E+00
DAV:   3    -0.106954904158E+05   -0.54319E-01   -0.78786E-01 20208   0.558E-01    0.132E+00
DAV:   4    -0.106954750090E+05    0.15407E-01   -0.15955E-01 20256   0.284E-01    0.769E-01
DAV:   5    -0.106954762044E+05   -0.11954E-02   -0.69777E-02 19904   0.156E-01    0.527E-01
DAV:   6    -0.106954744387E+05    0.17657E-02   -0.95387E-03 19920   0.955E-02    0.397E-01
DAV:   7    -0.106954732054E+05    0.12332E-02   -0.11314E-02 17120   0.592E-02    0.151E-01
DAV:   8    -0.106954732802E+05   -0.74817E-04   -0.21704E-03 17744   0.366E-02    0.108E-01
DAV:   9    -0.106954733575E+05   -0.77277E-04   -0.36604E-04  9776   0.193E-02
  145 T=  1470. E= -.10712744E+05 F= -.10695473E+05 E0= -.10695473E+05  EK= 0.29171E+03 SP= -.31E+03 SK= 0.16E+00
       N       E                     dE             d eps       ncg     rms          rms(c)
DAV:   1    -0.106922689649E+05    0.32043E+01   -0.94661E+00 17280   0.103E+01    0.240E+00
DAV:   2    -0.106938375571E+05   -0.15686E+01   -0.16469E+01 18608   0.342E+00    0.153E+00
DAV:   3    -0.106938936286E+05   -0.56072E-01   -0.81151E-01 20096   0.563E-01    0.134E+00
DAV:   4    -0.106938776233E+05    0.16005E-01   -0.16460E-01 20304   0.288E-01    0.788E-01
DAV:   5    -0.106938790559E+05   -0.14326E-02   -0.76602E-02 19744   0.162E-01    0.546E-01
DAV:   6    -0.106938769537E+05    0.21022E-02   -0.10416E-02 19744   0.999E-02    0.411E-01
DAV:   7    -0.106938757321E+05    0.12216E-02   -0.13184E-02 17088   0.630E-02    0.153E-01
DAV:   8    -0.106938758244E+05   -0.92302E-04   -0.21841E-03 17792   0.378E-02    0.114E-01
DAV:   9    -0.106938759420E+05   -0.11759E-03   -0.72205E-04 12784   0.210E-02    0.837E-02
DAV:  10    -0.106938758842E+05    0.57792E-04   -0.78694E-05  7728   0.151E-02
  146 T=  1470. E= -.10712751E+05 F= -.10693876E+05 E0= -.10693876E+05  EK= 0.29168E+03 SP= -.31E+03 SK= 0.19E+00
       N       E                     dE             d eps       ncg     rms          rms(c)
DAV:   1    -0.106913084757E+05    0.25675E+01   -0.93355E+00 17280   0.104E+01    0.231E+00
DAV:   2    -0.106928760608E+05   -0.15676E+01   -0.16337E+01 18624   0.340E+00    0.152E+00
DAV:   3    -0.106929278059E+05   -0.51745E-01   -0.79890E-01 20208   0.554E-01    0.133E+00
DAV:   4    -0.106929128304E+05    0.14976E-01   -0.14734E-01 20512   0.278E-01    0.799E-01
DAV:   5    -0.106929111707E+05    0.16597E-02   -0.67943E-02 19360   0.154E-01    0.471E-01
DAV:   6    -0.106929105951E+05    0.57550E-03   -0.10645E-02 19600   0.941E-02    0.372E-01
DAV:   7    -0.106929095255E+05    0.10697E-02   -0.65157E-03 17632   0.483E-02    0.169E-01
DAV:   8    -0.106929094957E+05    0.29812E-04   -0.20572E-03 17856   0.321E-02    0.112E-01
DAV:   9    -0.106929095513E+05   -0.55618E-04   -0.20433E-04  8096   0.185E-02
  147 T=  1474. E= -.10712760E+05 F= -.10692910E+05 E0= -.10692910E+05  EK= 0.29239E+03 SP= -.31E+03 SK= 0.21E+00
       N       E                     dE             d eps       ncg     rms          rms(c)
DAV:   1    -0.106909318225E+05    0.19777E+01   -0.90941E+00 17376   0.104E+01    0.237E+00
DAV:   2    -0.106924353705E+05   -0.15035E+01   -0.15823E+01 18592   0.334E+00    0.139E+00
DAV:   3    -0.106924930929E+05   -0.57722E-01   -0.77551E-01 20272   0.547E-01    0.122E+00
DAV:   4    -0.106924805376E+05    0.12555E-01   -0.13668E-01 20512   0.275E-01    0.731E-01
DAV:   5    -0.106924807744E+05   -0.23673E-03   -0.57851E-02 19472   0.141E-01    0.472E-01
DAV:   6    -0.106924796948E+05    0.10796E-02   -0.81300E-03 20016   0.860E-02    0.368E-01
DAV:   7    -0.106924786671E+05    0.10277E-02   -0.90559E-03 16736   0.547E-02    0.144E-01
DAV:   8    -0.106924787033E+05   -0.36262E-04   -0.23420E-03 17744   0.357E-02    0.107E-01
DAV:   9    -0.106924787760E+05   -0.72641E-04   -0.71905E-04 12624   0.221E-02
  148 T=  1480. E= -.10712774E+05 F= -.10692479E+05 E0= -.10692479E+05  EK= 0.29373E+03 SP= -.31E+03 SK= 0.23E+00
       N       E                     dE             d eps       ncg     rms          rms(c)
DAV:   1    -0.106907969071E+05    0.16818E+01   -0.92669E+00 17472   0.104E+01    0.231E+00
DAV:   2    -0.106923281485E+05   -0.15312E+01   -0.15983E+01 18576   0.333E+00    0.148E+00
DAV:   3    -0.106923797696E+05   -0.51621E-01   -0.75263E-01 20112   0.544E-01    0.127E+00
DAV:   4    -0.106923659850E+05    0.13785E-01   -0.14530E-01 20448   0.275E-01    0.760E-01
DAV:   5    -0.106923660423E+05   -0.57325E-04   -0.58821E-02 19568   0.144E-01    0.495E-01
DAV:   6    -0.106923646597E+05    0.13826E-02   -0.79644E-03 20048   0.867E-02    0.366E-01
DAV:   7    -0.106923637069E+05    0.95282E-03   -0.91864E-03 16768   0.545E-02    0.138E-01
DAV:   8    -0.106923637783E+05   -0.71469E-04   -0.20408E-03 17648   0.349E-02    0.103E-01
DAV:   9    -0.106923638855E+05   -0.10718E-03   -0.66926E-04 12848   0.207E-02    0.753E-02
DAV:  10    -0.106923638296E+05    0.55904E-04   -0.72902E-05  7808   0.150E-02
  149 T=  1489. E= -.10712805E+05 F= -.10692364E+05 E0= -.10692364E+05  EK= 0.29542E+03 SP= -.32E+03 SK= 0.24E+00
       N       E                     dE             d eps       ncg     rms          rms(c)
DAV:   1    -0.106906234644E+05    0.17404E+01   -0.97623E+00 17520   0.105E+01    0.235E+00
DAV:   2    -0.106922054223E+05   -0.15820E+01   -0.16491E+01 18608   0.339E+00    0.155E+00
DAV:   3    -0.106922539062E+05   -0.48484E-01   -0.76221E-01 20064   0.548E-01    0.133E+00
DAV:   4    -0.106922377439E+05    0.16162E-01   -0.15433E-01 20400   0.278E-01    0.795E-01
DAV:   5    -0.106922377026E+05    0.41243E-04   -0.68900E-02 19680   0.154E-01    0.521E-01
DAV:   6    -0.106922362318E+05    0.14708E-02   -0.95423E-03 20176   0.943E-02    0.385E-01
DAV:   7    -0.106922351343E+05    0.10975E-02   -0.10501E-02 17296   0.577E-02    0.149E-01
DAV:   8    -0.106922352093E+05   -0.74945E-04   -0.20829E-03 17312   0.362E-02    0.109E-01
DAV:   9    -0.106922353276E+05   -0.11830E-03   -0.64318E-04 12896   0.204E-02    0.828E-02
DAV:  10    -0.106922352528E+05    0.74819E-04   -0.71156E-05  7744   0.149E-02
  150 T=  1498. E= -.10712825E+05 F= -.10692235E+05 E0= -.10692235E+05  EK= 0.29714E+03 SP= -.32E+03 SK= 0.24E+00
