15361536   0   0
  0.1158988E+02  0.2647214E-08  0.2647214E-08  0.2540341E-08  0.2000000E-14
   1500.00000000000     
  CAR 
 unknown system                          
     12.50546823    -46.11744639  301      6.45387361      1.00000000
    -46.117  0.0000E+00  0.0000E+00
    -45.922  0.0000E+00  0.0000E+00
    -45.727  0.0000E+00  0.0000E+00
    -45.531  0.0000E+00  0.0000E+00
    -45.336  0.0000E+00  0.0000E+00
    -45.140  0.0000E+00  0.0000E+00
    -44.945  0.0000E+00  0.0000E+00
    -44.750  0.0000E+00  0.0000E+00
    -44.554  0.1267E-12  0.2443E-13
    -44.359  0.2194E-08  0.4238E-09
    -44.163  0.6378E-05  0.1235E-05
    -43.968  0.3148E-02  0.6115E-03
    -43.773  0.2738E+00  0.5376E-01
    -43.577  0.4632E+01  0.9538E+00
    -43.382  0.1965E+02  0.4777E+01
    -43.186  0.3832E+02  0.1225E+02
    -42.991  0.6599E+02  0.2513E+02
    -42.795  0.1042E+03  0.4549E+02
    -42.600  0.1423E+03  0.7334E+02
    -42.405  0.1715E+03  0.1069E+03
    -42.209  0.1854E+03  0.1433E+03
    -42.014  0.1779E+03  0.1782E+03
    -41.818  0.1502E+03  0.2077E+03
    -41.623  0.1075E+03  0.2288E+03
    -41.428  0.6504E+02  0.2416E+03
    -41.232  0.3604E+02  0.2487E+03
    -41.037  0.1908E+02  0.2525E+03
    -40.841  0.9281E+01  0.2543E+03
    -40.646  0.4203E+01  0.2552E+03
    -40.451  0.2366E+01  0.2556E+03
    -40.255  0.1231E+01  0.2559E+03
    -40.060  0.4595E+00  0.2560E+03
    -39.864  0.1607E+00  0.2560E+03
    -39.669  0.5250E-01  0.2560E+03
    -39.474  0.5419E-02  0.2560E+03
    -39.278  0.1138E-03  0.2560E+03
    -39.083  0.4127E-06  0.2560E+03
    -38.887  0.2342E-09  0.2560E+03
    -38.692  0.1965E-13  0.2560E+03
    -38.496  0.0000E+00  0.2560E+03
    -38.301  0.0000E+00  0.2560E+03
    -38.106  0.0000E+00  0.2560E+03
    -37.910  0.0000E+00  0.2560E+03
    -37.715  0.0000E+00  0.2560E+03
    -37.519  0.0000E+00  0.2560E+03
    -37.324  0.0000E+00  0.2560E+03
    -37.129  0.0000E+00  0.2560E+03
    -36.933  0.0000E+00  0.2560E+03
    -36.738  0.0000E+00  0.2560E+03
    -36.542  0.0000E+00  0.2560E+03
    -36.347  0.0000E+00  0.2560E+03
    -36.152  0.0000E+00  0.2560E+03
    -35.956  0.0000E+00  0.2560E+03
    -35.761  0.0000E+00  0.2560E+03
    -35.565  0.0000E+00  0.2560E+03
    -35.370  0.0000E+00  0.2560E+03
    -35.175  0.0000E+00  0.2560E+03
    -34.979  0.0000E+00  0.2560E+03
    -34.784  0.0000E+00  0.2560E+03
    -34.588  0.0000E+00  0.2560E+03
    -34.393  0.0000E+00  0.2560E+03
    -34.197  0.0000E+00  0.2560E+03
    -34.002  0.0000E+00  0.2560E+03
    -33.807  0.0000E+00  0.2560E+03
    -33.611  0.0000E+00  0.2560E+03
    -33.416  0.0000E+00  0.2560E+03
    -33.220  0.0000E+00  0.2560E+03
    -33.025  0.0000E+00  0.2560E+03
    -32.830  0.0000E+00  0.2560E+03
    -32.634  0.0000E+00  0.2560E+03
    -32.439  0.0000E+00  0.2560E+03
    -32.243  0.0000E+00  0.2560E+03
    -32.048  0.0000E+00  0.2560E+03
    -31.853  0.0000E+00  0.2560E+03
    -31.657  0.0000E+00  0.2560E+03
    -31.462  0.0000E+00  0.2560E+03
    -31.266  0.0000E+00  0.2560E+03
    -31.071  0.0000E+00  0.2560E+03
    -30.875  0.0000E+00  0.2560E+03
    -30.680  0.0000E+00  0.2560E+03
    -30.485  0.0000E+00  0.2560E+03
    -30.289  0.0000E+00  0.2560E+03
    -30.094  0.0000E+00  0.2560E+03
    -29.898  0.0000E+00  0.2560E+03
    -29.703  0.0000E+00  0.2560E+03
    -29.508  0.0000E+00  0.2560E+03
    -29.312  0.0000E+00  0.2560E+03
    -29.117  0.0000E+00  0.2560E+03
    -28.921  0.0000E+00  0.2560E+03
    -28.726  0.0000E+00  0.2560E+03
    -28.531  0.0000E+00  0.2560E+03
    -28.335  0.0000E+00  0.2560E+03
    -28.140  0.0000E+00  0.2560E+03
    -27.944  0.6305E-13  0.2560E+03
    -27.749  0.6040E-09  0.2560E+03
    -27.554  0.9592E-06  0.2560E+03
    -27.358  0.2670E-03  0.2560E+03
    -27.163  0.1411E-01  0.2560E+03
    -26.967  0.1614E+00  0.2560E+03
    -26.772  0.5907E+00  0.2562E+03
    -26.576  0.1671E+01  0.2565E+03
    -26.381  0.4730E+01  0.2574E+03
    -26.186  0.1463E+02  0.2603E+03
    -25.990  0.4315E+02  0.2687E+03
    -25.795  0.9571E+02  0.2874E+03
    -25.599  0.1645E+03  0.3195E+03
    -25.404  0.2286E+03  0.3643E+03
    -25.209  0.2711E+03  0.4174E+03
    -25.013  0.2862E+03  0.4735E+03
    -24.818  0.2704E+03  0.5265E+03
    -24.622  0.2219E+03  0.5701E+03
    -24.427  0.1606E+03  0.6017E+03
    -24.232  0.1003E+03  0.6214E+03
    -24.036  0.5328E+02  0.6319E+03
    -23.841  0.2465E+02  0.6368E+03
    -23.645  0.1001E+02  0.6387E+03
    -23.450  0.3805E+01  0.6395E+03
    -23.255  0.1457E+01  0.6398E+03
    -23.059  0.7525E+00  0.6399E+03
    -22.864  0.3110E+00  0.6400E+03
    -22.668  0.7113E-01  0.6400E+03
    -22.473  0.1610E+00  0.6400E+03
    -22.277  0.4090E+00  0.6401E+03
    -22.082  0.1764E+01  0.6405E+03
    -21.887  0.8962E+01  0.6422E+03
    -21.691  0.3325E+02  0.6487E+03
    -21.496  0.8775E+02  0.6659E+03
    -21.300  0.1955E+03  0.7041E+03
    -21.105  0.3601E+03  0.7746E+03
    -20.910  0.5255E+03  0.8774E+03
    -20.714  0.6313E+03  0.1001E+04
    -20.519  0.6449E+03  0.1128E+04
    -20.323  0.5577E+03  0.1237E+04
    -20.128  0.4030E+03  0.1316E+04
    -19.933  0.2460E+03  0.1365E+04
    -19.737  0.1273E+03  0.1390E+04
    -19.542  0.5607E+02  0.1401E+04
    -19.346  0.2278E+02  0.1405E+04
    -19.151  0.9365E+01  0.1407E+04
    -18.955  0.3736E+01  0.1408E+04
    -18.760  0.1122E+01  0.1408E+04
    -18.565  0.3499E+00  0.1408E+04
    -18.369  0.9796E-01  0.1408E+04
    -18.174  0.8338E-02  0.1408E+04
    -17.978  0.1357E-03  0.1408E+04
    -17.783  0.3558E-06  0.1408E+04
    -17.588  0.1399E-09  0.1408E+04
    -17.392  0.7992E-14  0.1408E+04
    -17.197  0.0000E+00  0.1408E+04
    -17.001  0.0000E+00  0.1408E+04
    -16.806  0.0000E+00  0.1408E+04
    -16.611  0.0000E+00  0.1408E+04
    -16.415  0.0000E+00  0.1408E+04
    -16.220  0.0000E+00  0.1408E+04
    -16.024  0.0000E+00  0.1408E+04
    -15.829  0.0000E+00  0.1408E+04
    -15.634  0.2431E-13  0.1408E+04
    -15.438  0.2572E-09  0.1408E+04
    -15.243  0.4290E-06  0.1408E+04
    -15.047  0.1182E-03  0.1408E+04
    -14.852  0.5831E-02  0.1408E+04
    -14.656  0.6118E-01  0.1408E+04
    -14.461  0.2174E+00  0.1408E+04
    -14.266  0.5482E+00  0.1408E+04
    -14.070  0.1485E+01  0.1408E+04
    -13.875  0.4482E+01  0.1409E+04
    -13.679  0.1050E+02  0.1411E+04
    -13.484  0.2113E+02  0.1416E+04
    -13.289  0.4163E+02  0.1424E+04
    -13.093  0.8049E+02  0.1439E+04
    -12.898  0.1412E+03  0.1467E+04
    -12.702  0.2251E+03  0.1511E+04
    -12.507  0.3279E+03  0.1576E+04
    -12.312  0.4346E+03  0.1661E+04
    -12.116  0.5290E+03  0.1764E+04
    -11.921  0.6006E+03  0.1882E+04
    -11.725  0.6552E+03  0.2010E+04
    -11.530  0.6964E+03  0.2147E+04
    -11.335  0.7170E+03  0.2287E+04
    -11.139  0.7129E+03  0.2427E+04
    -10.944  0.6736E+03  0.2559E+04
    -10.748  0.5928E+03  0.2675E+04
    -10.553  0.4832E+03  0.2770E+04
    -10.357  0.3583E+03  0.2841E+04
    -10.162  0.2409E+03  0.2888E+04
     -9.967  0.1489E+03  0.2917E+04
     -9.771  0.9422E+02  0.2936E+04
     -9.576  0.8981E+02  0.2953E+04
     -9.380  0.1500E+03  0.2983E+04
     -9.185  0.2743E+03  0.3036E+04
     -8.990  0.4262E+03  0.3120E+04
     -8.794  0.5500E+03  0.3228E+04
     -8.599  0.6261E+03  0.3350E+04
     -8.403  0.6640E+03  0.3480E+04
     -8.208  0.6579E+03  0.3609E+04
     -8.013  0.6151E+03  0.3730E+04
     -7.817  0.5489E+03  0.3838E+04
     -7.622  0.4573E+03  0.3927E+04
     -7.426  0.3464E+03  0.3995E+04
     -7.231  0.2367E+03  0.4042E+04
     -7.036  0.1424E+03  0.4070E+04
     -6.840  0.7522E+02  0.4085E+04
     -6.645  0.3554E+02  0.4092E+04
     -6.449  0.1487E+02  0.4095E+04
     -6.254  0.5370E+01  0.4096E+04
     -6.058  0.1548E+01  0.4096E+04
     -5.863  0.4262E+00  0.4096E+04
     -5.668  0.1067E+00  0.4096E+04
     -5.472  0.1053E-01  0.4096E+04
     -5.277  0.2288E-03  0.4096E+04
     -5.081  0.8535E-06  0.4096E+04
     -4.886  0.4939E-09  0.4096E+04
     -4.691  0.4232E-13  0.4096E+04
     -4.495  0.0000E+00  0.4096E+04
     -4.300  0.0000E+00  0.4096E+04
     -4.104  0.0000E+00  0.4096E+04
     -3.909  0.0000E+00  0.4096E+04
     -3.714  0.0000E+00  0.4096E+04
     -3.518  0.0000E+00  0.4096E+04
     -3.323  0.0000E+00  0.4096E+04
     -3.127  0.0000E+00  0.4096E+04
     -2.932  0.0000E+00  0.4096E+04
     -2.736  0.0000E+00  0.4096E+04
     -2.541  0.0000E+00  0.4096E+04
     -2.346  0.0000E+00  0.4096E+04
     -2.150  0.0000E+00  0.4096E+04
     -1.955  0.0000E+00  0.4096E+04
     -1.759  0.0000E+00  0.4096E+04
     -1.564  0.1854E-16  0.4096E+04
     -1.369  0.9654E-12  0.4096E+04
     -1.173  0.6380E-08  0.4096E+04
     -0.978  0.6315E-05  0.4096E+04
     -0.782  0.9871E-03  0.4096E+04
     -0.587  0.2713E-01  0.4096E+04
     -0.392  0.1743E+00  0.4096E+04
     -0.196  0.6147E+00  0.4096E+04
     -0.001  0.2403E+01  0.4097E+04
      0.195  0.8555E+01  0.4098E+04
      0.390  0.2868E+02  0.4104E+04
      0.585  0.8440E+02  0.4121E+04
      0.781  0.2020E+03  0.4160E+04
      0.976  0.3901E+03  0.4237E+04
      1.172  0.6249E+03  0.4359E+04
      1.367  0.8532E+03  0.4526E+04
      1.563  0.1033E+04  0.4729E+04
      1.758  0.1154E+04  0.4955E+04
      1.953  0.1219E+04  0.5194E+04
      2.149  0.1245E+04  0.5438E+04
      2.344  0.1240E+04  0.5681E+04
      2.540  0.1214E+04  0.5919E+04
      2.735  0.1198E+04  0.6154E+04
      2.930  0.1208E+04  0.6391E+04
      3.126  0.1236E+04  0.6633E+04
      3.321  0.1274E+04  0.6883E+04
      3.517  0.1312E+04  0.7140E+04
      3.712  0.1337E+04  0.7402E+04
      3.907  0.1337E+04  0.7664E+04
      4.103  0.1291E+04  0.7918E+04
      4.298  0.1179E+04  0.8149E+04
      4.494  0.9922E+03  0.8343E+04
      4.689  0.7535E+03  0.8491E+04
      4.884  0.5089E+03  0.8591E+04
      5.080  0.3028E+03  0.8650E+04
      5.275  0.1582E+03  0.8681E+04
      5.471  0.7170E+02  0.8695E+04
      5.666  0.2872E+02  0.8701E+04
      5.862  0.9993E+01  0.8703E+04
      6.057  0.3178E+01  0.8704E+04
      6.252  0.1140E+01  0.8704E+04
      6.448  0.2311E+00  0.8704E+04
      6.643  0.4404E-01  0.8704E+04
      6.839  0.1356E+00  0.8704E+04
      7.034  0.2875E+00  0.8704E+04
      7.229  0.9446E+00  0.8704E+04
      7.425  0.2955E+01  0.8705E+04
      7.620  0.8858E+01  0.8707E+04
      7.816  0.2551E+02  0.8712E+04
      8.011  0.6260E+02  0.8724E+04
      8.206  0.1290E+03  0.8749E+04
      8.402  0.2412E+03  0.8797E+04
      8.597  0.4037E+03  0.8876E+04
      8.793  0.6129E+03  0.8996E+04
      8.988  0.8753E+03  0.9168E+04
      9.184  0.1182E+04  0.9399E+04
      9.379  0.1499E+04  0.9693E+04
      9.574  0.1726E+04  0.1003E+05
      9.770  0.1488E+04  0.1032E+05
      9.965  0.6288E+03  0.1045E+05
     10.161  0.8655E+02  0.1046E+05
     10.356  0.2927E+01  0.1046E+05
     10.551  0.2025E-01  0.1046E+05
     10.747  0.2563E-04  0.1046E+05
     10.942  0.5566E-08  0.1046E+05
     11.138  0.1919E-12  0.1046E+05
     11.333  0.0000E+00  0.1046E+05
     11.528  0.0000E+00  0.1046E+05
     11.724  0.0000E+00  0.1046E+05
     11.919  0.0000E+00  0.1046E+05
     12.115  0.0000E+00  0.1046E+05
     12.310  0.0000E+00  0.1046E+05
     12.505  0.0000E+00  0.1046E+05
     12.68313692    -46.17559319  301      6.41713461      1.00000000
    -46.176  0.0000E+00  0.0000E+00
    -45.979  0.0000E+00  0.0000E+00
    -45.783  0.0000E+00  0.0000E+00
    -45.587  0.0000E+00  0.0000E+00
    -45.391  0.0000E+00  0.0000E+00
    -45.195  0.0000E+00  0.0000E+00
    -44.998  0.0000E+00  0.0000E+00
    -44.802  0.0000E+00  0.0000E+00
    -44.606  0.1811E-15  0.3553E-16
    -44.410  0.4277E-11  0.8391E-12
    -44.214  0.1542E-07  0.3027E-08
    -44.017  0.8641E-05  0.1698E-05
    -43.821  0.7815E-03  0.1550E-03
    -43.625  0.1244E-01  0.2596E-02
    -43.429  0.5118E-01  0.1264E-01
    -43.233  0.1834E+00  0.4863E-01
    -43.036  0.5736E+00  0.1612E+00
    -42.840  0.1101E+01  0.3772E+00
    -42.644  0.1398E+01  0.6515E+00
    -42.448  0.1306E+01  0.9076E+00
    -42.252  0.1039E+01  0.1111E+01
    -42.055  0.9450E+00  0.1297E+01
    -41.859  0.9440E+00  0.1482E+01
    -41.663  0.6709E+00  0.1614E+01
    -41.467  0.2801E+00  0.1669E+01
    -41.271  0.1412E+00  0.1696E+01
    -41.075  0.4784E-01  0.1706E+01
    -40.878  0.4605E-02  0.1707E+01
    -40.682  0.9565E-04  0.1707E+01
    -40.486  0.3618E-06  0.1707E+01
    -40.290  0.2254E-09  0.1707E+01
    -40.094  0.2196E-13  0.1707E+01
    -39.897  0.0000E+00  0.1707E+01
    -39.701  0.0000E+00  0.1707E+01
    -39.505  0.0000E+00  0.1707E+01
    -39.309  0.0000E+00  0.1707E+01
    -39.113  0.0000E+00  0.1707E+01
    -38.916  0.0000E+00  0.1707E+01
    -38.720  0.0000E+00  0.1707E+01
    -38.524  0.0000E+00  0.1707E+01
    -38.328  0.0000E+00  0.1707E+01
    -38.132  0.0000E+00  0.1707E+01
    -37.935  0.0000E+00  0.1707E+01
    -37.739  0.0000E+00  0.1707E+01
    -37.543  0.0000E+00  0.1707E+01
    -37.347  0.0000E+00  0.1707E+01
    -37.151  0.0000E+00  0.1707E+01
    -36.954  0.0000E+00  0.1707E+01
    -36.758  0.0000E+00  0.1707E+01
    -36.562  0.0000E+00  0.1707E+01
    -36.366  0.0000E+00  0.1707E+01
    -36.170  0.0000E+00  0.1707E+01
    -35.973  0.0000E+00  0.1707E+01
    -35.777  0.0000E+00  0.1707E+01
    -35.581  0.0000E+00  0.1707E+01
    -35.385  0.0000E+00  0.1707E+01
    -35.189  0.0000E+00  0.1707E+01
    -34.992  0.0000E+00  0.1707E+01
    -34.796  0.0000E+00  0.1707E+01
    -34.600  0.0000E+00  0.1707E+01
    -34.404  0.0000E+00  0.1707E+01
    -34.208  0.0000E+00  0.1707E+01
    -34.011  0.0000E+00  0.1707E+01
    -33.815  0.0000E+00  0.1707E+01
    -33.619  0.0000E+00  0.1707E+01
    -33.423  0.0000E+00  0.1707E+01
    -33.227  0.0000E+00  0.1707E+01
    -33.030  0.0000E+00  0.1707E+01
    -32.834  0.0000E+00  0.1707E+01
    -32.638  0.0000E+00  0.1707E+01
    -32.442  0.0000E+00  0.1707E+01
    -32.246  0.0000E+00  0.1707E+01
    -32.049  0.0000E+00  0.1707E+01
    -31.853  0.0000E+00  0.1707E+01
    -31.657  0.0000E+00  0.1707E+01
    -31.461  0.0000E+00  0.1707E+01
    -31.265  0.0000E+00  0.1707E+01
    -31.069  0.0000E+00  0.1707E+01
    -30.872  0.0000E+00  0.1707E+01
    -30.676  0.0000E+00  0.1707E+01
    -30.480  0.0000E+00  0.1707E+01
    -30.284  0.0000E+00  0.1707E+01
    -30.088  0.0000E+00  0.1707E+01
    -29.891  0.0000E+00  0.1707E+01
    -29.695  0.0000E+00  0.1707E+01
    -29.499  0.0000E+00  0.1707E+01
    -29.303  0.0000E+00  0.1707E+01
    -29.107  0.0000E+00  0.1707E+01
    -28.910  0.0000E+00  0.1707E+01
    -28.714  0.0000E+00  0.1707E+01
    -28.518  0.0000E+00  0.1707E+01
    -28.322  0.0000E+00  0.1707E+01
    -28.126  0.0000E+00  0.1707E+01
    -27.929  0.0000E+00  0.1707E+01
    -27.733  0.3773E-17  0.1707E+01
    -27.537  0.2228E-12  0.1707E+01
    -27.341  0.1448E-08  0.1707E+01
    -27.145  0.1450E-05  0.1707E+01
    -26.948  0.2312E-03  0.1707E+01
    -26.752  0.6263E-02  0.1708E+01
    -26.556  0.3401E-01  0.1715E+01
    -26.360  0.6675E-01  0.1728E+01
    -26.164  0.1664E+00  0.1760E+01
    -25.967  0.4273E+00  0.1844E+01
    -25.771  0.8025E+00  0.2002E+01
    -25.575  0.1306E+01  0.2258E+01
    -25.379  0.1720E+01  0.2595E+01
    -25.183  0.2172E+01  0.3021E+01
    -24.986  0.2094E+01  0.3432E+01
    -24.790  0.1795E+01  0.3785E+01
    -24.594  0.1265E+01  0.4033E+01
    -24.398  0.6755E+00  0.4165E+01
    -24.202  0.2994E+00  0.4224E+01
    -24.005  0.1492E+00  0.4253E+01
    -23.809  0.5979E-01  0.4265E+01
    -23.613  0.7934E-02  0.4267E+01
    -23.417  0.2423E-03  0.4267E+01
    -23.221  0.1378E-05  0.4267E+01
    -23.024  0.1298E-08  0.4267E+01
    -22.828  0.1947E-12  0.4267E+01
    -22.632  0.4667E-10  0.4267E+01
    -22.436  0.1120E-06  0.4267E+01
    -22.240  0.4469E-04  0.4267E+01
    -22.044  0.3229E-02  0.4267E+01
    -21.847  0.5039E-01  0.4277E+01
    -21.651  0.2657E+00  0.4329E+01
    -21.455  0.8497E+00  0.4496E+01
    -21.259  0.1964E+01  0.4881E+01
    -21.063  0.3575E+01  0.5583E+01
    -20.866  0.4564E+01  0.6478E+01
    -20.670  0.4353E+01  0.7332E+01
    -20.474  0.3637E+01  0.8046E+01
    -20.278  0.3071E+01  0.8648E+01
    -20.082  0.2052E+01  0.9051E+01
    -19.885  0.9470E+00  0.9237E+01
    -19.689  0.4727E+00  0.9330E+01
    -19.493  0.2307E+00  0.9375E+01
    -19.297  0.5620E-01  0.9386E+01
    -19.101  0.4089E-02  0.9387E+01
    -18.904  0.6400E-04  0.9387E+01
    -18.708  0.1801E-06  0.9387E+01
    -18.512  0.8335E-10  0.9387E+01
    -18.316  0.6059E-14  0.9387E+01
    -18.120  0.0000E+00  0.9387E+01
    -17.923  0.0000E+00  0.9387E+01
    -17.727  0.0000E+00  0.9387E+01
    -17.531  0.0000E+00  0.9387E+01
    -17.335  0.0000E+00  0.9387E+01
    -17.139  0.0000E+00  0.9387E+01
    -16.942  0.0000E+00  0.9387E+01
    -16.746  0.0000E+00  0.9387E+01
    -16.550  0.0000E+00  0.9387E+01
    -16.354  0.0000E+00  0.9387E+01
    -16.158  0.0000E+00  0.9387E+01
    -15.961  0.0000E+00  0.9387E+01
    -15.765  0.0000E+00  0.9387E+01
    -15.569  0.0000E+00  0.9387E+01
    -15.373  0.0000E+00  0.9387E+01
    -15.177  0.0000E+00  0.9387E+01
    -14.980  0.0000E+00  0.9387E+01
    -14.784  0.1132E-16  0.9387E+01
    -14.588  0.3719E-12  0.9387E+01
    -14.392  0.2193E-08  0.9387E+01
    -14.196  0.2013E-05  0.9387E+01
    -13.999  0.3044E-03  0.9387E+01
    -13.803  0.8808E-02  0.9388E+01
    -13.607  0.6700E-01  0.9402E+01
    -13.411  0.2129E+00  0.9443E+01
    -13.215  0.4989E+00  0.9541E+01
    -13.019  0.9666E+00  0.9731E+01
    -12.822  0.1495E+01  0.1002E+02
    -12.626  0.2124E+01  0.1044E+02
    -12.430  0.2841E+01  0.1100E+02
    -12.234  0.3519E+01  0.1169E+02
    -12.038  0.4005E+01  0.1247E+02
    -11.841  0.4254E+01  0.1331E+02
    -11.645  0.4415E+01  0.1418E+02
    -11.449  0.4624E+01  0.1508E+02
    -11.253  0.4594E+01  0.1598E+02
    -11.057  0.4362E+01  0.1684E+02
    -10.860  0.4191E+01  0.1766E+02
    -10.664  0.3655E+01  0.1838E+02
    -10.468  0.2636E+01  0.1890E+02
    -10.272  0.1730E+01  0.1924E+02
    -10.076  0.1102E+01  0.1945E+02
     -9.879  0.7015E+00  0.1959E+02
     -9.683  0.5564E+00  0.1970E+02
     -9.487  0.8808E+00  0.1987E+02
     -9.291  0.1457E+01  0.2016E+02
     -9.095  0.2209E+01  0.2059E+02
     -8.898  0.3201E+01  0.2122E+02
     -8.702  0.4239E+01  0.2205E+02
     -8.506  0.4759E+01  0.2298E+02
     -8.310  0.4589E+01  0.2388E+02
     -8.114  0.4029E+01  0.2468E+02
     -7.917  0.3622E+01  0.2539E+02
     -7.721  0.3268E+01  0.2603E+02
     -7.525  0.2653E+01  0.2655E+02
     -7.329  0.1886E+01  0.2692E+02
     -7.133  0.1107E+01  0.2713E+02
     -6.936  0.5683E+00  0.2725E+02
     -6.740  0.2356E+00  0.2729E+02
     -6.544  0.6540E-01  0.2731E+02
     -6.348  0.6748E-02  0.2731E+02
     -6.152  0.1577E-03  0.2731E+02
     -5.955  0.6696E-06  0.2731E+02
     -5.759  0.4694E-09  0.2731E+02
     -5.563  0.5182E-13  0.2731E+02
     -5.367  0.0000E+00  0.2731E+02
     -5.171  0.0000E+00  0.2731E+02
     -4.974  0.0000E+00  0.2731E+02
     -4.778  0.0000E+00  0.2731E+02
     -4.582  0.0000E+00  0.2731E+02
     -4.386  0.0000E+00  0.2731E+02
     -4.190  0.0000E+00  0.2731E+02
     -3.994  0.0000E+00  0.2731E+02
     -3.797  0.0000E+00  0.2731E+02
     -3.601  0.0000E+00  0.2731E+02
     -3.405  0.0000E+00  0.2731E+02
     -3.209  0.0000E+00  0.2731E+02
     -3.013  0.0000E+00  0.2731E+02
     -2.816  0.0000E+00  0.2731E+02
     -2.620  0.0000E+00  0.2731E+02
     -2.424  0.0000E+00  0.2731E+02
     -2.228  0.0000E+00  0.2731E+02
     -2.032  0.0000E+00  0.2731E+02
     -1.835  0.0000E+00  0.2731E+02
     -1.639  0.0000E+00  0.2731E+02
     -1.443  0.0000E+00  0.2731E+02
     -1.247  0.0000E+00  0.2731E+02
     -1.051  0.0000E+00  0.2731E+02
     -0.854  0.9620E-15  0.2731E+02
     -0.658  0.1707E-10  0.2731E+02
     -0.462  0.4623E-07  0.2731E+02
     -0.266  0.1968E-04  0.2731E+02
     -0.070  0.1408E-02  0.2731E+02
      0.127  0.2041E-01  0.2731E+02
      0.323  0.9963E-01  0.2733E+02
      0.519  0.3544E+00  0.2740E+02
      0.715  0.1111E+01  0.2762E+02
      0.911  0.2487E+01  0.2811E+02
      1.108  0.4087E+01  0.2891E+02
      1.304  0.5591E+01  0.3000E+02
      1.500  0.6883E+01  0.3136E+02
      1.696  0.7713E+01  0.3287E+02
      1.892  0.8091E+01  0.3446E+02
      2.089  0.8215E+01  0.3607E+02
      2.285  0.8178E+01  0.3767E+02
      2.481  0.8075E+01  0.3926E+02
      2.677  0.8013E+01  0.4083E+02
      2.873  0.8119E+01  0.4242E+02
      3.070  0.8297E+01  0.4405E+02
      3.266  0.8453E+01  0.4571E+02
      3.462  0.8579E+01  0.4739E+02
      3.658  0.8722E+01  0.4910E+02
      3.854  0.8818E+01  0.5083E+02
      4.051  0.8575E+01  0.5251E+02
      4.247  0.7929E+01  0.5407E+02
      4.443  0.6965E+01  0.5544E+02
      4.639  0.5467E+01  0.5651E+02
      4.835  0.3742E+01  0.5724E+02
      5.032  0.2242E+01  0.5768E+02
      5.228  0.1094E+01  0.5790E+02
      5.424  0.4658E+00  0.5799E+02
      5.620  0.1633E+00  0.5802E+02
      5.816  0.2644E-01  0.5803E+02
      6.012  0.1190E-02  0.5803E+02
      6.209  0.1149E-04  0.5803E+02
      6.405  0.2006E-07  0.5803E+02
      6.601  0.5713E-11  0.5803E+02
      6.797  0.2174E-12  0.5803E+02
      6.993  0.1443E-08  0.5803E+02
      7.190  0.1514E-05  0.5803E+02
      7.386  0.2692E-03  0.5803E+02
      7.582  0.9402E-02  0.5803E+02
      7.778  0.8457E-01  0.5805E+02
      7.974  0.2975E+00  0.5810E+02
      8.171  0.7342E+00  0.5825E+02
      8.367  0.1576E+01  0.5856E+02
      8.563  0.2768E+01  0.5910E+02
      8.759  0.4145E+01  0.5991E+02
      8.955  0.5558E+01  0.6100E+02
      9.152  0.7183E+01  0.6241E+02
      9.348  0.8858E+01  0.6415E+02
      9.544  0.1020E+02  0.6615E+02
      9.740  0.1014E+02  0.6814E+02
      9.936  0.6399E+01  0.6940E+02
     10.133  0.1704E+01  0.6973E+02
     10.329  0.1443E+00  0.6976E+02
     10.525  0.3300E-02  0.6976E+02
     10.721  0.1841E-04  0.6976E+02
     10.917  0.2231E-07  0.6976E+02
     11.114  0.5098E-11  0.6976E+02
     11.310  0.1886E-15  0.6976E+02
     11.506  0.0000E+00  0.6976E+02
     11.702  0.0000E+00  0.6976E+02
     11.898  0.0000E+00  0.6976E+02
     12.095  0.0000E+00  0.6976E+02
     12.291  0.0000E+00  0.6976E+02
     12.487  0.0000E+00  0.6976E+02
     12.683  0.0000E+00  0.6976E+02
