 1536 1536  150    1
  0.1158988E+02  0.2647214E-08  0.2647214E-08  0.2540341E-08  0.2000000E-14
   1500.00000000000     
  CAR 
 unknown system                          
   8704      1   5232
 
  0.0000000E+00  0.0000000E+00  0.0000000E+00  0.1000000E+01
    1      -43.500196   1.000000
    2      -43.227605   1.000000
    3      -43.217462   1.000000
    4      -43.174754   1.000000
    5      -43.160078   1.000000
    6      -43.103994   1.000000
    7      -43.102675   1.000000
    8      -43.098503   1.000000
    9      -43.052139   1.000000
   10      -43.036850   1.000000
   11      -43.023946   1.000000
   12      -43.020297   1.000000
   13      -42.985233   1.000000
   14      -42.971952   1.000000
   15      -42.943617   1.000000
   16      -42.935448   1.000000
   17      -42.931605   1.000000
   18      -42.930227   1.000000
   19      -42.923023   1.000000
   20      -42.916966   1.000000
   21      -42.909312   1.000000
   22      -42.907392   1.000000
   23      -42.899230   1.000000
   24      -42.890844   1.000000
   25      -42.886997   1.000000
   26      -42.850974   1.000000
   27      -42.847876   1.000000
   28      -42.822219   1.000000
   29      -42.821500   1.000000
   30      -42.820027   1.000000
   31      -42.812207   1.000000
   32      -42.783005   1.000000
   33      -42.776362   1.000000
   34      -42.774226   1.000000
   35      -42.766892   1.000000
   36      -42.762716   1.000000
   37      -42.757416   1.000000
   38      -42.756345   1.000000
   39      -42.741746   1.000000
   40      -42.733558   1.000000
   41      -42.733136   1.000000
   42      -42.726362   1.000000
   43      -42.714774   1.000000
   44      -42.699851   1.000000
   45      -42.693306   1.000000
   46      -42.688015   1.000000
   47      -42.684301   1.000000
   48      -42.673731   1.000000
   49      -42.667956   1.000000
   50      -42.615342   1.000000
   51      -42.611449   1.000000
   52      -42.607965   1.000000
   53      -42.601068   1.000000
   54      -42.565088   1.000000
   55      -42.562688   1.000000
   56      -42.562443   1.000000
   57      -42.561007   1.000000
   58      -42.555947   1.000000
   59      -42.553991   1.000000
   60      -42.553729   1.000000
   61      -42.551757   1.000000
   62      -42.545476   1.000000
   63      -42.542418   1.000000
   64      -42.540460   1.000000
   65      -42.540453   1.000000
   66      -42.535593   1.000000
   67      -42.515242   1.000000
   68      -42.486706   1.000000
   69      -42.473894   1.000000
   70      -42.463338   1.000000
   71      -42.418980   1.000000
   72      -42.408598   1.000000
   73      -42.406977   1.000000
   74      -42.395614   1.000000
   75      -42.388254   1.000000
   76      -42.388109   1.000000
   77      -42.343707   1.000000
   78      -42.309395   1.000000
   79      -42.307568   1.000000
   80      -42.297546   1.000000
   81      -42.285772   1.000000
   82      -42.260621   1.000000
   83      -42.252468   1.000000
   84      -42.252029   1.000000
   85      -42.241714   1.000000
   86      -42.237087   1.000000
   87      -42.227495   1.000000
   88      -42.212860   1.000000
   89      -42.202438   1.000000
   90      -42.200429   1.000000
   91      -42.165173   1.000000
   92      -42.130936   1.000000
   93      -42.115889   1.000000
   94      -42.073216   1.000000
   95      -42.071964   1.000000
   96      -42.069452   1.000000
   97      -42.063224   1.000000
   98      -42.038969   1.000000
   99      -42.035975   1.000000
  100      -42.027039   1.000000
  101      -42.006309   1.000000
  102      -41.990286   1.000000
  103      -41.972783   1.000000
  104      -41.965435   1.000000
  105      -41.949664   1.000000
  106      -41.929289   1.000000
  107      -41.921919   1.000000
  108      -41.901302   1.000000
  109      -41.898325   1.000000
  110      -41.897403   1.000000
  111      -41.890101   1.000000
  112      -41.882604   1.000000
  113      -41.863068   1.000000
  114      -41.855636   1.000000
  115      -41.835502   1.000000
  116      -41.825417   1.000000
  117      -41.811648   1.000000
  118      -41.764356   1.000000
  119      -41.752734   1.000000
  120      -41.749738   1.000000
  121      -41.747962   1.000000
  122      -41.733828   1.000000
  123      -41.728561   1.000000
  124      -41.649631   1.000000
  125      -41.480592   1.000000
  126      -41.456534   1.000000
  127      -41.387496   1.000000
  128      -41.306842   1.000000
  129      -26.565853   1.000000
  130      -26.339503   1.000000
  131      -26.176981   1.000000
  132      -26.111638   1.000000
  133      -26.073123   1.000000
  134      -26.067136   1.000000
  135      -26.042824   1.000000
  136      -26.004854   1.000000
  137      -25.974022   1.000000
  138      -25.969578   1.000000
  139      -25.959581   1.000000
  140      -25.932329   1.000000
  141      -25.911049   1.000000
  142      -25.882907   1.000000
  143      -25.863771   1.000000
  144      -25.800022   1.000000
  145      -25.790233   1.000000
  146      -25.787539   1.000000
  147      -25.775300   1.000000
  148      -25.757950   1.000000
  149      -25.748106   1.000000
  150      -25.741407   1.000000
  151      -25.734300   1.000000
  152      -25.714655   1.000000
  153      -25.708759   1.000000
  154      -25.696815   1.000000
  155      -25.694250   1.000000
  156      -25.690531   1.000000
  157      -25.677835   1.000000
  158      -25.675748   1.000000
  159      -25.665698   1.000000
  160      -25.647738   1.000000
  161      -25.645933   1.000000
  162      -25.644297   1.000000
  163      -25.637862   1.000000
  164      -25.633859   1.000000
  165      -25.622054   1.000000
  166      -25.611415   1.000000
  167      -25.597341   1.000000
  168      -25.590390   1.000000
  169      -25.582012   1.000000
  170      -25.579167   1.000000
  171      -25.561586   1.000000
  172      -25.551705   1.000000
  173      -25.545604   1.000000
  174      -25.524018   1.000000
  175      -25.515215   1.000000
  176      -25.511263   1.000000
  177      -25.504790   1.000000
  178      -25.493905   1.000000
  179      -25.489474   1.000000
  180      -25.479519   1.000000
  181      -25.473106   1.000000
  182      -25.456065   1.000000
  183      -25.453435   1.000000
  184      -25.448754   1.000000
  185      -25.441669   1.000000
  186      -25.427359   1.000000
  187      -25.426064   1.000000
  188      -25.393137   1.000000
  189      -25.386661   1.000000
  190      -25.376720   1.000000
  191      -25.373453   1.000000
  192      -25.369988   1.000000
  193      -25.367807   1.000000
  194      -25.365312   1.000000
  195      -25.353334   1.000000
  196      -25.344715   1.000000
  197      -25.339938   1.000000
  198      -25.339612   1.000000
  199      -25.333481   1.000000
  200      -25.331445   1.000000
  201      -25.326712   1.000000
  202      -25.314144   1.000000
  203      -25.309176   1.000000
  204      -25.307238   1.000000
  205      -25.300924   1.000000
  206      -25.296738   1.000000
  207      -25.295938   1.000000
  208      -25.280503   1.000000
  209      -25.271043   1.000000
  210      -25.269349   1.000000
  211      -25.261615   1.000000
  212      -25.260980   1.000000
  213      -25.260336   1.000000
  214      -25.259863   1.000000
  215      -25.258103   1.000000
  216      -25.257539   1.000000
  217      -25.248839   1.000000
  218      -25.235021   1.000000
  219      -25.233398   1.000000
  220      -25.227016   1.000000
  221      -25.222006   1.000000
  222      -25.206733   1.000000
  223      -25.205481   1.000000
  224      -25.194605   1.000000
  225      -25.188369   1.000000
  226      -25.186702   1.000000
  227      -25.179641   1.000000
  228      -25.175121   1.000000
  229      -25.168543   1.000000
  230      -25.164667   1.000000
  231      -25.163009   1.000000
  232      -25.161233   1.000000
  233      -25.153659   1.000000
  234      -25.150264   1.000000
  235      -25.147439   1.000000
  236      -25.145224   1.000000
  237      -25.141560   1.000000
  238      -25.137122   1.000000
  239      -25.136823   1.000000
  240      -25.132321   1.000000
  241      -25.125534   1.000000
  242      -25.118996   1.000000
  243      -25.117992   1.000000
  244      -25.114104   1.000000
  245      -25.108436   1.000000
  246      -25.099519   1.000000
  247      -25.087167   1.000000
  248      -25.087105   1.000000
  249      -25.084643   1.000000
  250      -25.067391   1.000000
  251      -25.049144   1.000000
  252      -25.043109   1.000000
  253      -25.036531   1.000000
  254      -25.024252   1.000000
  255      -25.023598   1.000000
  256      -24.997404   1.000000
  257      -24.968231   1.000000
  258      -24.959590   1.000000
  259      -24.950965   1.000000
  260      -24.947427   1.000000
  261      -24.939150   1.000000
  262      -24.938939   1.000000
  263      -24.933451   1.000000
  264      -24.931005   1.000000
  265      -24.927018   1.000000
  266      -24.923998   1.000000
  267      -24.918968   1.000000
  268      -24.917184   1.000000
  269      -24.911672   1.000000
  270      -24.910453   1.000000
  271      -24.901367   1.000000
  272      -24.897444   1.000000
  273      -24.873399   1.000000
  274      -24.871082   1.000000
  275      -24.870692   1.000000
  276      -24.870180   1.000000
  277      -24.860978   1.000000
  278      -24.851112   1.000000
  279      -24.841934   1.000000
  280      -24.837987   1.000000
  281      -24.822739   1.000000
  282      -24.822136   1.000000
  283      -24.821196   1.000000
  284      -24.818368   1.000000
  285      -24.817857   1.000000
  286      -24.814122   1.000000
  287      -24.795537   1.000000
  288      -24.794937   1.000000
  289      -24.778701   1.000000
  290      -24.777575   1.000000
  291      -24.773904   1.000000
  292      -24.747510   1.000000
  293      -24.731036   1.000000
  294      -24.728081   1.000000
  295      -24.726408   1.000000
  296      -24.724058   1.000000
  297      -24.706823   1.000000
  298      -24.706767   1.000000
  299      -24.679591   1.000000
  300      -24.673438   1.000000
  301      -24.668941   1.000000
  302      -24.668296   1.000000
  303      -24.639314   1.000000
  304      -24.606396   1.000000
  305      -24.575409   1.000000
  306      -24.567497   1.000000
  307      -24.546623   1.000000
  308      -24.530712   1.000000
  309      -24.510407   1.000000
  310      -24.507444   1.000000
  311      -24.471507   1.000000
  312      -24.463425   1.000000
  313      -24.432973   1.000000
  314      -24.427855   1.000000
  315      -24.409782   1.000000
  316      -24.380642   1.000000
  317      -24.190315   1.000000
  318      -24.180701   1.000000
  319      -24.093134   1.000000
  320      -23.998819   1.000000
  321      -21.773298   1.000000
  322      -21.706813   1.000000
  323      -21.703754   1.000000
  324      -21.644779   1.000000
  325      -21.552572   1.000000
  326      -21.552217   1.000000
  327      -21.520531   1.000000
  328      -21.508088   1.000000
  329      -21.500323   1.000000
  330      -21.491911   1.000000
  331      -21.479337   1.000000
  332      -21.478816   1.000000
  333      -21.475362   1.000000
  334      -21.455000   1.000000
  335      -21.448743   1.000000
  336      -21.438628   1.000000
  337      -21.436366   1.000000
  338      -21.429348   1.000000
  339      -21.414749   1.000000
  340      -21.411131   1.000000
  341      -21.387981   1.000000
  342      -21.376954   1.000000
  343      -21.372853   1.000000
  344      -21.367389   1.000000
  345      -21.354307   1.000000
  346      -21.349435   1.000000
  347      -21.345553   1.000000
  348      -21.332943   1.000000
  349      -21.331556   1.000000
  350      -21.311409   1.000000
  351      -21.303460   1.000000
  352      -21.300628   1.000000
  353      -21.293836   1.000000
  354      -21.290816   1.000000
  355      -21.283714   1.000000
  356      -21.259204   1.000000
  357      -21.257103   1.000000
  358      -21.249744   1.000000
  359      -21.247137   1.000000
  360      -21.245229   1.000000
  361      -21.244604   1.000000
  362      -21.243305   1.000000
  363      -21.233029   1.000000
  364      -21.228259   1.000000
  365      -21.220723   1.000000
  366      -21.215930   1.000000
  367      -21.214822   1.000000
  368      -21.211883   1.000000
  369      -21.209251   1.000000
  370      -21.208710   1.000000
  371      -21.198959   1.000000
  372      -21.197818   1.000000
  373      -21.196118   1.000000
  374      -21.193396   1.000000
  375      -21.184013   1.000000
  376      -21.180616   1.000000
  377      -21.177201   1.000000
  378      -21.176083   1.000000
  379      -21.166942   1.000000
  380      -21.163635   1.000000
  381      -21.162798   1.000000
  382      -21.161134   1.000000
  383      -21.158507   1.000000
  384      -21.152974   1.000000
  385      -21.144081   1.000000
  386      -21.142261   1.000000
  387      -21.138724   1.000000
  388      -21.136821   1.000000
  389      -21.135089   1.000000
  390      -21.134538   1.000000
  391      -21.132142   1.000000
  392      -21.126780   1.000000
  393      -21.123210   1.000000
  394      -21.120471   1.000000
  395      -21.115337   1.000000
  396      -21.112081   1.000000
  397      -21.104639   1.000000
  398      -21.102584   1.000000
  399      -21.100391   1.000000
  400      -21.100140   1.000000
  401      -21.098993   1.000000
  402      -21.098845   1.000000
  403      -21.096530   1.000000
  404      -21.094779   1.000000
  405      -21.090244   1.000000
  406      -21.090016   1.000000
  407      -21.089974   1.000000
  408      -21.088843   1.000000
  409      -21.086611   1.000000
  410      -21.086579   1.000000
  411      -21.085744   1.000000
  412      -21.080404   1.000000
  413      -21.076990   1.000000
  414      -21.074199   1.000000
  415      -21.072382   1.000000
  416      -21.072309   1.000000
  417      -21.069385   1.000000
  418      -21.068162   1.000000
  419      -21.062743   1.000000
  420      -21.062548   1.000000
  421      -21.059755   1.000000
  422      -21.057639   1.000000
  423      -21.051416   1.000000
  424      -21.050758   1.000000
  425      -21.045715   1.000000
  426      -21.042820   1.000000
  427      -21.030387   1.000000
  428      -21.029202   1.000000
  429      -21.025439   1.000000
  430      -21.024412   1.000000
  431      -21.024220   1.000000
  432      -21.019499   1.000000
  433      -21.015022   1.000000
  434      -21.003387   1.000000
  435      -21.002913   1.000000
  436      -21.002201   1.000000
  437      -21.000467   1.000000
  438      -20.993553   1.000000
  439      -20.990303   1.000000
  440      -20.990025   1.000000
  441      -20.986414   1.000000
  442      -20.985486   1.000000
  443      -20.984487   1.000000
  444      -20.983871   1.000000
  445      -20.982533   1.000000
  446      -20.981117   1.000000
  447      -20.975552   1.000000
  448      -20.975451   1.000000
  449      -20.965942   1.000000
  450      -20.962863   1.000000
  451      -20.962323   1.000000
  452      -20.959885   1.000000
  453      -20.959849   1.000000
  454      -20.959574   1.000000
  455      -20.957973   1.000000
  456      -20.954403   1.000000
  457      -20.954034   1.000000
  458      -20.949470   1.000000
  459      -20.946199   1.000000
  460      -20.942086   1.000000
  461      -20.939469   1.000000
  462      -20.935923   1.000000
  463      -20.923420   1.000000
  464      -20.922631   1.000000
  465      -20.920936   1.000000
  466      -20.918179   1.000000
  467      -20.917955   1.000000
  468      -20.917161   1.000000
  469      -20.915328   1.000000
  470      -20.914724   1.000000
  471      -20.912048   1.000000
  472      -20.910005   1.000000
  473      -20.905979   1.000000
  474      -20.904671   1.000000
  475      -20.899405   1.000000
  476      -20.894605   1.000000
  477      -20.893051   1.000000
  478      -20.891451   1.000000
  479      -20.890709   1.000000
  480      -20.883061   1.000000
  481      -20.882882   1.000000
  482      -20.878919   1.000000
  483      -20.874929   1.000000
  484      -20.874639   1.000000
  485      -20.873789   1.000000
  486      -20.869618   1.000000
  487      -20.866982   1.000000
  488      -20.865409   1.000000
  489      -20.861531   1.000000
  490      -20.860015   1.000000
  491      -20.850605   1.000000
  492      -20.850550   1.000000
  493      -20.848152   1.000000
  494      -20.839937   1.000000
  495      -20.839843   1.000000
  496      -20.833771   1.000000
  497      -20.831134   1.000000
  498      -20.829613   1.000000
  499      -20.826245   1.000000
  500      -20.826077   1.000000
  501      -20.822982   1.000000
  502      -20.822474   1.000000
  503      -20.818694   1.000000
  504      -20.817559   1.000000
  505      -20.813276   1.000000
  506      -20.810741   1.000000
  507      -20.809018   1.000000
  508      -20.808655   1.000000
  509      -20.808176   1.000000
  510      -20.805104   1.000000
  511      -20.804986   1.000000
  512      -20.803107   1.000000
  513      -20.798269   1.000000
  514      -20.796354   1.000000
  515      -20.792604   1.000000
  516      -20.790004   1.000000
  517      -20.789326   1.000000
  518      -20.787376   1.000000
  519      -20.781752   1.000000
  520      -20.780655   1.000000
  521      -20.779631   1.000000
  522      -20.776261   1.000000
  523      -20.772837   1.000000
  524      -20.769827   1.000000
  525      -20.768064   1.000000
  526      -20.768041   1.000000
  527      -20.765891   1.000000
  528      -20.761564   1.000000
  529      -20.755512   1.000000
  530      -20.754196   1.000000
  531      -20.753711   1.000000
  532      -20.753071   1.000000
  533      -20.745237   1.000000
  534      -20.744235   1.000000
  535      -20.742188   1.000000
  536      -20.738361   1.000000
  537      -20.737556   1.000000
  538      -20.731785   1.000000
  539      -20.729154   1.000000
  540      -20.727884   1.000000
  541      -20.727278   1.000000
  542      -20.724638   1.000000
  543      -20.724500   1.000000
  544      -20.720455   1.000000
  545      -20.706017   1.000000
  546      -20.698888   1.000000
  547      -20.692472   1.000000
  548      -20.687076   1.000000
  549      -20.681160   1.000000
  550      -20.679403   1.000000
  551      -20.677340   1.000000
  552      -20.670418   1.000000
  553      -20.668782   1.000000
  554      -20.664107   1.000000
  555      -20.660636   1.000000
  556      -20.660066   1.000000
  557      -20.653856   1.000000
  558      -20.649759   1.000000
  559      -20.645122   1.000000
  560      -20.639301   1.000000
  561      -20.634685   1.000000
  562      -20.634485   1.000000
  563      -20.627940   1.000000
  564      -20.626491   1.000000
  565      -20.625737   1.000000
  566      -20.622679   1.000000
  567      -20.615991   1.000000
  568      -20.611663   1.000000
  569      -20.608218   1.000000
  570      -20.606345   1.000000
  571      -20.602946   1.000000
  572      -20.602575   1.000000
  573      -20.600191   1.000000
  574      -20.594116   1.000000
  575      -20.593339   1.000000
  576      -20.591797   1.000000
  577      -20.591200   1.000000
  578      -20.589296   1.000000
  579      -20.582852   1.000000
  580      -20.576602   1.000000
  581      -20.576336   1.000000
  582      -20.574779   1.000000
  583      -20.571696   1.000000
  584      -20.567547   1.000000
  585      -20.559187   1.000000
  586      -20.556188   1.000000
  587      -20.544603   1.000000
  588      -20.538521   1.000000
  589      -20.533143   1.000000
  590      -20.532946   1.000000
  591      -20.530842   1.000000
  592      -20.529410   1.000000
  593      -20.528808   1.000000
  594      -20.527391   1.000000
  595      -20.523734   1.000000
  596      -20.522940   1.000000
  597      -20.522649   1.000000
  598      -20.515506   1.000000
  599      -20.501405   1.000000
  600      -20.501191   1.000000
  601      -20.493789   1.000000
  602      -20.490457   1.000000
  603      -20.480187   1.000000
  604      -20.472724   1.000000
  605      -20.468800   1.000000
  606      -20.468749   1.000000
  607      -20.468498   1.000000
  608      -20.461946   1.000000
  609      -20.445829   1.000000
  610      -20.445289   1.000000
  611      -20.434120   1.000000
  612      -20.432138   1.000000
  613      -20.428622   1.000000
  614      -20.424312   1.000000
  615      -20.421816   1.000000
  616      -20.418058   1.000000
  617      -20.415811   1.000000
  618      -20.413903   1.000000
  619      -20.412572   1.000000
  620      -20.410984   1.000000
  621      -20.403818   1.000000
  622      -20.402492   1.000000
  623      -20.397406   1.000000
  624      -20.396107   1.000000
  625      -20.391644   1.000000
  626      -20.388782   1.000000
  627      -20.387470   1.000000
  628      -20.387425   1.000000
  629      -20.379863   1.000000
  630      -20.377273   1.000000
  631      -20.365643   1.000000
  632      -20.364013   1.000000
  633      -20.362200   1.000000
  634      -20.358505   1.000000
  635      -20.351804   1.000000
  636      -20.351524   1.000000
  637      -20.350463   1.000000
  638      -20.349724   1.000000
  639      -20.343449   1.000000
  640      -20.333096   1.000000
  641      -20.332551   1.000000
  642      -20.330874   1.000000
  643      -20.322319   1.000000
  644      -20.319325   1.000000
  645      -20.316307   1.000000
  646      -20.315223   1.000000
  647      -20.310014   1.000000
  648      -20.309364   1.000000
  649      -20.295726   1.000000
  650      -20.289100   1.000000
  651      -20.283267   1.000000
  652      -20.282579   1.000000
  653      -20.282234   1.000000
  654      -20.279610   1.000000
  655      -20.272541   1.000000
  656      -20.268937   1.000000
  657      -20.264728   1.000000
  658      -20.259738   1.000000
  659      -20.246966   1.000000
  660      -20.246577   1.000000
  661      -20.240839   1.000000
  662      -20.238580   1.000000
  663      -20.237951   1.000000
  664      -20.233638   1.000000
  665      -20.224589   1.000000
  666      -20.213122   1.000000
  667      -20.210493   1.000000
  668      -20.197031   1.000000
  669      -20.193364   1.000000
  670      -20.193138   1.000000
  671      -20.189327   1.000000
  672      -20.187887   1.000000
  673      -20.185914   1.000000
  674      -20.179804   1.000000
  675      -20.178304   1.000000
  676      -20.172347   1.000000
  677      -20.153917   1.000000
  678      -20.146895   1.000000
  679      -20.144778   1.000000
  680      -20.131144   1.000000
  681      -20.130815   1.000000
  682      -20.117626   1.000000
  683      -20.115527   1.000000
  684      -20.108566   1.000000
  685      -20.079984   1.000000
  686      -20.032710   1.000000
  687      -20.031156   1.000000
  688      -20.007460   1.000000
  689      -20.003912   1.000000
  690      -19.997253   1.000000
  691      -19.985422   1.000000
  692      -19.912939   1.000000
  693      -19.909603   1.000000
  694      -19.889753   1.000000
  695      -19.871117   1.000000
  696      -19.864687   1.000000
  697      -19.825201   1.000000
  698      -19.764013   1.000000
  699      -19.752921   1.000000
  700      -19.740295   1.000000
  701      -19.698090   1.000000
  702      -19.655008   1.000000
  703      -19.595173   1.000000
  704      -19.555592   1.000000
  705      -13.627316   1.000000
  706      -13.481649   1.000000
  707      -13.471962   1.000000
  708      -13.434546   1.000000
  709      -13.385100   1.000000
  710      -13.275445   1.000000
  711      -13.253672   1.000000
  712      -13.251403   1.000000
  713      -13.245982   1.000000
  714      -13.226944   1.000000
  715      -13.196989   1.000000
  716      -13.176846   1.000000
  717      -13.159672   1.000000
  718      -13.149770   1.000000
  719      -13.134717   1.000000
  720      -13.114220   1.000000
  721      -13.110975   1.000000
  722      -13.103096   1.000000
  723      -13.090839   1.000000
  724      -13.084266   1.000000
  725      -13.075205   1.000000
  726      -13.045981   1.000000
  727      -13.039268   1.000000
  728      -13.016724   1.000000
  729      -13.005842   1.000000
  730      -13.001985   1.000000
  731      -12.993001   1.000000
  732      -12.975905   1.000000
  733      -12.951913   1.000000
  734      -12.951295   1.000000
  735      -12.949275   1.000000
  736      -12.932625   1.000000
  737      -12.923463   1.000000
  738      -12.921595   1.000000
  739      -12.915461   1.000000
  740      -12.912180   1.000000
  741      -12.911675   1.000000
  742      -12.897091   1.000000
  743      -12.884803   1.000000
  744      -12.864969   1.000000
  745      -12.851657   1.000000
  746      -12.844026   1.000000
  747      -12.843828   1.000000
  748      -12.830863   1.000000
  749      -12.826292   1.000000
  750      -12.822107   1.000000
  751      -12.813925   1.000000
  752      -12.811932   1.000000
  753      -12.802048   1.000000
  754      -12.792186   1.000000
  755      -12.787151   1.000000
  756      -12.777115   1.000000
  757      -12.773885   1.000000
  758      -12.766614   1.000000
  759      -12.753868   1.000000
  760      -12.752990   1.000000
  761      -12.744464   1.000000
  762      -12.736219   1.000000
  763      -12.735002   1.000000
  764      -12.726443   1.000000
  765      -12.720581   1.000000
  766      -12.711739   1.000000
  767      -12.708798   1.000000
  768      -12.703862   1.000000
  769      -12.690721   1.000000
  770      -12.684796   1.000000
  771      -12.678220   1.000000
  772      -12.670856   1.000000
  773      -12.669046   1.000000
  774      -12.666217   1.000000
  775      -12.653437   1.000000
  776      -12.644614   1.000000
  777      -12.638926   1.000000
  778      -12.633305   1.000000
  779      -12.632851   1.000000
  780      -12.627293   1.000000
  781      -12.624953   1.000000
  782      -12.619547   1.000000
  783      -12.618821   1.000000
  784      -12.615295   1.000000
  785      -12.603872   1.000000
  786      -12.598285   1.000000
  787      -12.590225   1.000000
  788      -12.589206   1.000000
  789      -12.583710   1.000000
  790      -12.579497   1.000000
  791      -12.578128   1.000000
  792      -12.574201   1.000000
  793      -12.569090   1.000000
  794      -12.558940   1.000000
  795      -12.553921   1.000000
  796      -12.551832   1.000000
  797      -12.547777   1.000000
  798      -12.537572   1.000000
  799      -12.526427   1.000000
  800      -12.524838   1.000000
  801      -12.521655   1.000000
  802      -12.518870   1.000000
  803      -12.514882   1.000000
  804      -12.507168   1.000000
  805      -12.506152   1.000000
  806      -12.503929   1.000000
  807      -12.502154   1.000000
  808      -12.496537   1.000000
  809      -12.487742   1.000000
  810      -12.484431   1.000000
  811      -12.479843   1.000000
  812      -12.475438   1.000000
  813      -12.470199   1.000000
  814      -12.464985   1.000000
  815      -12.462125   1.000000
  816      -12.450544   1.000000
  817      -12.447454   1.000000
  818      -12.445228   1.000000
  819      -12.442515   1.000000
  820      -12.435326   1.000000
  821      -12.431943   1.000000
  822      -12.430110   1.000000
  823      -12.426483   1.000000
  824      -12.424393   1.000000
  825      -12.423180   1.000000
  826      -12.417506   1.000000
  827      -12.413938   1.000000
  828      -12.411655   1.000000
  829      -12.405909   1.000000
  830      -12.404077   1.000000
  831      -12.397284   1.000000
  832      -12.393112   1.000000
  833      -12.390516   1.000000
  834      -12.385264   1.000000
  835      -12.380620   1.000000
  836      -12.377085   1.000000
  837      -12.371857   1.000000
  838      -12.369167   1.000000
  839      -12.365585   1.000000
  840      -12.360544   1.000000
  841      -12.358410   1.000000
  842      -12.355148   1.000000
  843      -12.352840   1.000000
  844      -12.347821   1.000000
  845      -12.345699   1.000000
  846      -12.343359   1.000000
  847      -12.337150   1.000000
  848      -12.331161   1.000000
  849      -12.326798   1.000000
  850      -12.323771   1.000000
  851      -12.320553   1.000000
  852      -12.317592   1.000000
  853      -12.312395   1.000000
  854      -12.305549   1.000000
  855      -12.304228   1.000000
  856      -12.301193   1.000000
  857      -12.297097   1.000000
  858      -12.295959   1.000000
  859      -12.288014   1.000000
  860      -12.285721   1.000000
  861      -12.283848   1.000000
  862      -12.275585   1.000000
  863      -12.273788   1.000000
  864      -12.270268   1.000000
  865      -12.267549   1.000000
  866      -12.265921   1.000000
  867      -12.258563   1.000000
  868      -12.256098   1.000000
  869      -12.253264   1.000000
  870      -12.249304   1.000000
  871      -12.246024   1.000000
  872      -12.244100   1.000000
  873      -12.241563   1.000000
  874      -12.240773   1.000000
  875      -12.235882   1.000000
  876      -12.230526   1.000000
  877      -12.229256   1.000000
  878      -12.222878   1.000000
  879      -12.221361   1.000000
  880      -12.217378   1.000000
  881      -12.216037   1.000000
  882      -12.211943   1.000000
  883      -12.208977   1.000000
  884      -12.206929   1.000000
  885      -12.202484   1.000000
  886      -12.195320   1.000000
  887      -12.193681   1.000000
  888      -12.188779   1.000000
  889      -12.186802   1.000000
  890      -12.182526   1.000000
  891      -12.180573   1.000000
  892      -12.178133   1.000000
  893      -12.173881   1.000000
  894      -12.171440   1.000000
  895      -12.167453   1.000000
  896      -12.166809   1.000000
  897      -12.161236   1.000000
  898      -12.156194   1.000000
  899      -12.154886   1.000000
  900      -12.151204   1.000000
  901      -12.149704   1.000000