       N       E                     dE             d eps       ncg     rms          rms(c)
DAV:   1     0.230184260075E+06    0.23018E+06   -0.29007E+06 10768   0.260E+03
DAV:   2     0.809692210965E+05   -0.14922E+06   -0.13799E+06 11472   0.826E+02
DAV:   3     0.214684747309E+05   -0.59501E+05   -0.53444E+05 11120   0.383E+02
DAV:   4    -0.350553667768E+04   -0.24974E+05   -0.23227E+05 14256   0.228E+02
DAV:   5    -0.115933573854E+05   -0.80878E+04   -0.76163E+04 20176   0.144E+02    0.315E+02
DAV:   6    -0.107792766063E+05    0.81408E+03   -0.12098E+04 19440   0.655E+01    0.131E+02
DAV:   7    -0.109685491181E+05   -0.18927E+03   -0.29415E+03 20208   0.328E+01    0.628E+01
DAV:   8    -0.111042495164E+05   -0.13570E+03   -0.24377E+03 20016   0.271E+01    0.841E+01
DAV:   9    -0.109998004633E+05    0.10445E+03   -0.61650E+02 19360   0.162E+01    0.255E+01
DAV:  10    -0.110176260831E+05   -0.17826E+02   -0.95932E+01 20496   0.838E+00    0.325E+01
DAV:  11    -0.110078251978E+05    0.98009E+01   -0.86658E+01 20048   0.525E+00    0.959E+00
DAV:  12    -0.110092719593E+05   -0.14468E+01   -0.25181E+01 20864   0.340E+00    0.813E+00
DAV:  13    -0.110095402850E+05   -0.26833E+00   -0.62212E+00 20576   0.190E+00    0.650E+00
DAV:  14    -0.110097389766E+05   -0.19869E+00   -0.17797E+00 20928   0.827E-01    0.699E+00
DAV:  15    -0.110094687277E+05    0.27025E+00   -0.22228E+00 19344   0.118E+00    0.254E+00
DAV:  16    -0.110094967536E+05   -0.28026E-01   -0.36856E-01 20448   0.469E-01    0.117E+00
DAV:  17    -0.110094972725E+05   -0.51880E-03   -0.12584E-01 20192   0.271E-01    0.835E-01
DAV:  18    -0.110094953270E+05    0.19454E-02   -0.41474E-02 20128   0.149E-01    0.592E-01
DAV:  19    -0.110094969679E+05   -0.16409E-02   -0.13009E-02 20272   0.907E-02    0.644E-01
DAV:  20    -0.110094952404E+05    0.17275E-02   -0.58962E-03 19872   0.633E-02    0.397E-01
DAV:  21    -0.110094946606E+05    0.57981E-03   -0.55366E-03 19152   0.447E-02    0.169E-01
DAV:  22    -0.110094947286E+05   -0.67992E-04   -0.63255E-04 12256   0.242E-02
    1 T=  1500. E= -.10711872E+05 F= -.11009495E+05 E0= -.11009495E+05  EK= 0.29762E+03 SP= 0.00E+00 SK= 0.00E+00
       N       E                     dE             d eps       ncg     rms          rms(c)
DAV:   1    -0.109854826541E+05    0.24012E+02   -0.41966E+03 10624   0.320E+01    0.128E+01
DAV:   2    -0.110042558653E+05   -0.18773E+02   -0.19580E+02 17840   0.117E+01    0.621E+00
DAV:   3    -0.110048440365E+05   -0.58817E+00   -0.13437E+01 20896   0.228E+00    0.496E+00
DAV:   4    -0.110042615954E+05    0.58244E+00   -0.29721E+00 19264   0.123E+00    0.243E+00
DAV:   5    -0.110042275389E+05    0.34056E-01   -0.11274E+00 19584   0.811E-01    0.174E+00
DAV:   6    -0.110042184205E+05    0.91184E-02   -0.49101E-01 20160   0.469E-01    0.908E-01
DAV:   7    -0.110042130794E+05    0.53411E-02   -0.12132E-01 20496   0.260E-01    0.480E-01
DAV:   8    -0.110042123406E+05    0.73872E-03   -0.27618E-02 20816   0.121E-01    0.236E-01
DAV:   9    -0.110042122974E+05    0.43203E-04   -0.77273E-03 20480   0.762E-02    0.110E-01
DAV:  10    -0.110042125913E+05   -0.29386E-03   -0.37304E-03 20032   0.449E-02    0.829E-02
DAV:  11    -0.110042125137E+05    0.77635E-04   -0.59342E-04 11232   0.243E-02
    2 T=  1474. E= -.10711795E+05 F= -.11004213E+05 E0= -.11004213E+05  EK= 0.29242E+03 SP= 0.10E-02 SK= 0.27E-06
       N       E                     dE             d eps       ncg     rms          rms(c)
DAV:   1    -0.109865073359E+05    0.17705E+02   -0.75057E+01 17696   0.114E+01    0.412E+00
DAV:   2    -0.109887546296E+05   -0.22473E+01   -0.25187E+01 18544   0.302E+00    0.290E+00
DAV:   3    -0.109887422089E+05    0.12421E-01   -0.12746E+00 20160   0.921E-01    0.228E+00
DAV:   4    -0.109886769384E+05    0.65270E-01   -0.45146E-01 20144   0.429E-01    0.118E+00
DAV:   5    -0.109886802620E+05   -0.33236E-02   -0.14263E-01 20160   0.217E-01    0.792E-01
DAV:   6    -0.109886797104E+05    0.55157E-03   -0.25813E-02 20912   0.124E-01    0.591E-01
DAV:   7    -0.109886762561E+05    0.34543E-02   -0.30130E-02 19616   0.102E-01    0.195E-01
DAV:   8    -0.109886761690E+05    0.87034E-04   -0.71685E-03 19392   0.599E-02    0.160E-01
DAV:   9    -0.109886760961E+05    0.72899E-04   -0.16320E-03 16896   0.295E-02    0.804E-02
DAV:  10    -0.109886760420E+05    0.54176E-04   -0.17199E-04  8048   0.178E-02
    3 T=  1397. E= -.10711679E+05 F= -.10988676E+05 E0= -.10988676E+05  EK= 0.27712E+03 SP= -.13E+00 SK= 0.44E-02
       N       E                     dE             d eps       ncg     rms          rms(c)
DAV:   1    -0.109621886845E+05    0.26487E+02   -0.28122E+01 17584   0.113E+01    0.332E+00
DAV:   2    -0.109643910733E+05   -0.22024E+01   -0.23310E+01 18560   0.358E+00    0.193E+00
DAV:   3    -0.109644428069E+05   -0.51734E-01   -0.10276E+00 20080   0.677E-01    0.156E+00
DAV:   4    -0.109644187784E+05    0.24028E-01   -0.20759E-01 20128   0.321E-01    0.897E-01
DAV:   5    -0.109644182716E+05    0.50684E-03   -0.49708E-02 20128   0.135E-01    0.575E-01
DAV:   6    -0.109644170986E+05    0.11730E-02   -0.89326E-03 20064   0.767E-02    0.377E-01
DAV:   7    -0.109644167688E+05    0.32984E-03   -0.62567E-03 18848   0.482E-02    0.164E-01
DAV:   8    -0.109644166111E+05    0.15768E-03   -0.16033E-03 16848   0.320E-02    0.117E-01
DAV:   9    -0.109644166734E+05   -0.62313E-04   -0.80028E-04 13520   0.208E-02
    4 T=  1278. E= -.10711516E+05 F= -.10964417E+05 E0= -.10964417E+05  EK= 0.25359E+03 SP= -.75E+00 SK= 0.68E-01
       N       E                     dE             d eps       ncg     rms          rms(c)
DAV:   1    -0.109320934430E+05    0.32323E+02   -0.23439E+01 17392   0.106E+01    0.304E+00
DAV:   2    -0.109340352536E+05   -0.19418E+01   -0.20619E+01 18592   0.339E+00    0.197E+00
DAV:   3    -0.109340776505E+05   -0.42397E-01   -0.90763E-01 20160   0.640E-01    0.160E+00
DAV:   4    -0.109340519623E+05    0.25688E-01   -0.20975E-01 20032   0.319E-01    0.935E-01
DAV:   5    -0.109340524968E+05   -0.53442E-03   -0.58534E-02 20048   0.142E-01    0.621E-01
DAV:   6    -0.109340509226E+05    0.15742E-02   -0.85582E-03 20304   0.817E-02    0.420E-01
DAV:   7    -0.109340506161E+05    0.30645E-03   -0.84975E-03 19120   0.525E-02    0.186E-01
DAV:   8    -0.109340504108E+05    0.20530E-03   -0.24170E-03 16928   0.371E-02    0.123E-01
DAV:   9    -0.109340504913E+05   -0.80466E-04   -0.82823E-04 13600   0.216E-02
    5 T=  1133. E= -.10711307E+05 F= -.10934050E+05 E0= -.10934050E+05  EK= 0.22481E+03 SP= -.25E+01 SK= 0.40E+00
       N       E                     dE             d eps       ncg     rms          rms(c)
DAV:   1    -0.108995754769E+05    0.34475E+02   -0.14830E+01 17504   0.947E+00    0.265E+00
DAV:   2    -0.109010633626E+05   -0.14879E+01   -0.15794E+01 18608   0.301E+00    0.171E+00
DAV:   3    -0.109010905865E+05   -0.27224E-01   -0.66529E-01 20080   0.545E-01    0.138E+00
DAV:   4    -0.109010702965E+05    0.20290E-01   -0.15104E-01 20016   0.269E-01    0.804E-01
DAV:   5    -0.109010701544E+05    0.14214E-03   -0.49827E-02 19824   0.126E-01    0.516E-01
DAV:   6    -0.109010689906E+05    0.11637E-02   -0.58614E-03 19296   0.733E-02    0.352E-01
DAV:   7    -0.109010687795E+05    0.21111E-03   -0.75176E-03 18480   0.483E-02    0.151E-01
DAV:   8    -0.109010686197E+05    0.15985E-03   -0.16523E-03 16736   0.318E-02    0.106E-01
DAV:   9    -0.109010686722E+05   -0.52562E-04   -0.97662E-04 13408   0.209E-02
    6 T=   980. E= -.10711067E+05 F= -.10901069E+05 E0= -.10901069E+05  EK= 0.19453E+03 SP= -.59E+01 SK= 0.14E+01
       N       E                     dE             d eps       ncg     rms          rms(c)
DAV:   1    -0.108683883400E+05    0.32680E+02   -0.86469E+00 17760   0.841E+00    0.221E+00
DAV:   2    -0.108694708612E+05   -0.10825E+01   -0.11502E+01 18528   0.264E+00    0.148E+00
DAV:   3    -0.108694911780E+05   -0.20317E-01   -0.48337E-01 20144   0.463E-01    0.119E+00
DAV:   4    -0.108694756485E+05    0.15530E-01   -0.11080E-01 19920   0.230E-01    0.694E-01
DAV:   5    -0.108694759652E+05   -0.31673E-03   -0.41934E-02 19856   0.114E-01    0.460E-01
DAV:   6    -0.108694747826E+05    0.11826E-02   -0.48309E-03 18512   0.680E-02    0.316E-01
DAV:   7    -0.108694746158E+05    0.16681E-03   -0.77253E-03 18384   0.484E-02    0.139E-01
DAV:   8    -0.108694744696E+05    0.14619E-03   -0.11870E-03 15856   0.289E-02    0.102E-01
DAV:   9    -0.108694744868E+05   -0.17154E-04   -0.10954E-03 12672   0.213E-02    0.424E-02
DAV:  10    -0.108694744670E+05    0.19735E-04   -0.75069E-05  7712   0.149E-02
    7 T=   841. E= -.10710847E+05 F= -.10869474E+05 E0= -.10869474E+05  EK= 0.16680E+03 SP= -.12E+02 SK= 0.38E+01
       N       E                     dE             d eps       ncg     rms          rms(c)
DAV:   1    -0.108421775758E+05    0.27297E+02   -0.47414E+00 18016   0.753E+00    0.177E+00
DAV:   2    -0.108429472393E+05   -0.76966E+00   -0.81202E+00 18576   0.229E+00    0.127E+00
DAV:   3    -0.108429582003E+05   -0.10961E-01   -0.33041E-01 20128   0.385E-01    0.104E+00
DAV:   4    -0.108429461315E+05    0.12069E-01   -0.79790E-02 19824   0.193E-01    0.599E-01
DAV:   5    -0.108429459835E+05    0.14803E-03   -0.38496E-02 19728   0.107E-01    0.385E-01
DAV:   6    -0.108429449919E+05    0.99165E-03   -0.39673E-03 18288   0.644E-02    0.256E-01
DAV:   7    -0.108429448230E+05    0.16883E-03   -0.58130E-03 18304   0.417E-02    0.103E-01
DAV:   8    -0.108429447928E+05    0.30188E-04   -0.39015E-04  9776   0.210E-02
    8 T=   732. E= -.10710722E+05 F= -.10842945E+05 E0= -.10842945E+05  EK= 0.14520E+03 SP= -.21E+02 SK= 0.82E+01
       N       E                     dE             d eps       ncg     rms          rms(c)
DAV:   1    -0.108233426285E+05    0.19602E+02   -0.23342E+00 18416   0.685E+00    0.139E+00
DAV:   2    -0.108238474609E+05   -0.50483E+00   -0.53671E+00 18560   0.192E+00    0.954E-01
DAV:   3    -0.108238585397E+05   -0.11079E-01   -0.21808E-01 20160   0.307E-01    0.787E-01
DAV:   4    -0.108238517294E+05    0.68103E-02   -0.47199E-02 19296   0.154E-01    0.455E-01
DAV:   5    -0.108238520262E+05   -0.29677E-03   -0.19568E-02 19584   0.782E-02    0.316E-01
DAV:   6    -0.108238513242E+05    0.70199E-03   -0.24310E-03 17232   0.479E-02    0.218E-01
DAV:   7    -0.108238511211E+05    0.20310E-03   -0.44538E-03 17200   0.383E-02    0.929E-02
DAV:   8    -0.108238510309E+05    0.90247E-04   -0.48794E-04 10576   0.245E-02
    9 T=   666. E= -.10710705E+05 F= -.10823851E+05 E0= -.10823851E+05  EK= 0.13211E+03 SP= -.34E+02 SK= 0.15E+02
       N       E                     dE             d eps       ncg     rms          rms(c)
DAV:   1    -0.108125120286E+05    0.11339E+02   -0.14510E+00 18656   0.649E+00    0.114E+00
DAV:   2    -0.108128906451E+05   -0.37862E+00   -0.39977E+00 18560   0.172E+00    0.702E-01
DAV:   3    -0.108129004725E+05   -0.98275E-02   -0.16532E-01 19696   0.269E-01    0.638E-01
DAV:   4    -0.108128969788E+05    0.34938E-02   -0.24638E-02 20176   0.116E-01    0.414E-01
DAV:   5    -0.108128955809E+05    0.13979E-02   -0.18154E-02 18928   0.758E-02    0.199E-01
DAV:   6    -0.108128955659E+05    0.15013E-04   -0.26870E-03 17984   0.467E-02    0.167E-01
DAV:   7    -0.108128953170E+05    0.24884E-03   -0.10652E-03 12848   0.232E-02    0.924E-02
DAV:   8    -0.108128952557E+05    0.61274E-04   -0.99586E-04 12704   0.230E-02
   10 T=   647. E= -.10710789E+05 F= -.10812895E+05 E0= -.10812895E+05  EK= 0.12845E+03 SP= -.51E+02 SK= 0.25E+02
       N       E                     dE             d eps       ncg     rms          rms(c)
DAV:   1    -0.108088895349E+05    0.40058E+01   -0.12568E+00 18912   0.644E+00    0.107E+00
DAV:   2    -0.108092300664E+05   -0.34053E+00   -0.36135E+00 18496   0.166E+00    0.724E-01
DAV:   3    -0.108092388262E+05   -0.87598E-02   -0.15858E-01 19296   0.272E-01    0.673E-01
DAV:   4    -0.108092343008E+05    0.45254E-02   -0.28784E-02 19920   0.118E-01    0.419E-01
DAV:   5    -0.108092333149E+05    0.98597E-03   -0.26134E-02 18752   0.917E-02    0.244E-01
DAV:   6    -0.108092332956E+05    0.19285E-04   -0.37885E-03 18112   0.550E-02    0.219E-01
DAV:   7    -0.108092327471E+05    0.54846E-03   -0.21077E-03 13488   0.298E-02    0.114E-01
DAV:   8    -0.108092326871E+05    0.60029E-04   -0.15592E-03 15312   0.258E-02    0.599E-02
DAV:   9    -0.108092326774E+05    0.96748E-05   -0.15274E-04  7760   0.165E-02
   11 T=   675. E= -.10710935E+05 F= -.10809233E+05 E0= -.10809233E+05  EK= 0.13390E+03 SP= -.72E+02 SK= 0.37E+02
       N       E                     dE             d eps       ncg     rms          rms(c)
DAV:   1    -0.108105928757E+05   -0.13602E+01   -0.14421E+00 18848   0.666E+00    0.119E+00
DAV:   2    -0.108109557642E+05   -0.36289E+00   -0.39088E+00 18544   0.174E+00    0.797E-01
DAV:   3    -0.108109665096E+05   -0.10745E-01   -0.17347E-01 19184   0.280E-01    0.700E-01
DAV:   4    -0.108109608744E+05    0.56352E-02   -0.37425E-02 19760   0.133E-01    0.425E-01
DAV:   5    -0.108109616496E+05   -0.77525E-03   -0.32550E-02 19264   0.101E-01    0.349E-01
DAV:   6    -0.108109605319E+05    0.11177E-02   -0.43483E-03 18832   0.609E-02    0.261E-01
DAV:   7    -0.108109599442E+05    0.58771E-03   -0.71876E-03 16800   0.465E-02    0.931E-02
DAV:   8    -0.108109599723E+05   -0.28066E-04   -0.81920E-04 12112   0.247E-02
   12 T=   742. E= -.10711097E+05 F= -.10810960E+05 E0= -.10810960E+05  EK= 0.14731E+03 SP= -.97E+02 SK= 0.50E+02
       N       E                     dE             d eps       ncg     rms          rms(c)
DAV:   1    -0.108152500404E+05   -0.42901E+01   -0.18589E+00 18496   0.709E+00    0.131E+00
DAV:   2    -0.108156908648E+05   -0.44082E+00   -0.47445E+00 18560   0.189E+00    0.104E+00
DAV:   3    -0.108157004568E+05   -0.95920E-02   -0.21368E-01 19664   0.316E-01    0.906E-01
DAV:   4    -0.108156904377E+05    0.10019E-01   -0.60084E-02 19632   0.164E-01    0.534E-01
DAV:   5    -0.108156923882E+05   -0.19506E-02   -0.53391E-02 18704   0.129E-01    0.469E-01
DAV:   6    -0.108156899106E+05    0.24777E-02   -0.86509E-03 19168   0.831E-02    0.323E-01
DAV:   7    -0.108156892824E+05    0.62819E-03   -0.90453E-03 18592   0.519E-02    0.126E-01
DAV:   8    -0.108156892931E+05   -0.10722E-04   -0.50857E-04 10192   0.227E-02
   13 T=   842. E= -.10711267E+05 F= -.10815689E+05 E0= -.10815689E+05  EK= 0.16709E+03 SP= -.13E+03 SK= 0.64E+02
       N       E                     dE             d eps       ncg     rms          rms(c)
DAV:   1    -0.108203655752E+05   -0.46763E+01   -0.24749E+00 17952   0.763E+00    0.150E+00
DAV:   2    -0.108209130132E+05   -0.54744E+00   -0.59481E+00 18592   0.215E+00    0.112E+00
DAV:   3    -0.108209253067E+05   -0.12293E-01   -0.27518E-01 19504   0.356E-01    0.981E-01
DAV:   4    -0.108209139642E+05    0.11342E-01   -0.64327E-02 19760   0.173E-01    0.584E-01
DAV:   5    -0.108209140747E+05   -0.11050E-03   -0.56258E-02 19024   0.133E-01    0.421E-01
DAV:   6    -0.108209128359E+05    0.12388E-02   -0.75088E-03 18848   0.799E-02    0.323E-01
DAV:   7    -0.108209120240E+05    0.81191E-03   -0.76655E-03 18352   0.488E-02    0.127E-01
DAV:   8    -0.108209120061E+05    0.17847E-04   -0.97083E-04 13408   0.243E-02
   14 T=   965. E= -.10711438E+05 F= -.10820912E+05 E0= -.10820912E+05  EK= 0.19148E+03 SP= -.16E+03 SK= 0.76E+02
       N       E                     dE             d eps       ncg     rms          rms(c)
DAV:   1    -0.108235789714E+05   -0.26669E+01   -0.32373E+00 17568   0.826E+00    0.156E+00
DAV:   2    -0.108242592872E+05   -0.68032E+00   -0.72797E+00 18592   0.243E+00    0.113E+00
DAV:   3    -0.108242753517E+05   -0.16064E-01   -0.32048E-01 19136   0.384E-01    0.950E-01
DAV:   4    -0.108242663718E+05    0.89799E-02   -0.64177E-02 20016   0.173E-01    0.586E-01
DAV:   5    -0.108242648108E+05    0.15610E-02   -0.41796E-02 19744   0.119E-01    0.350E-01
DAV:   6    -0.108242643380E+05    0.47281E-03   -0.52030E-03 19216   0.689E-02    0.268E-01
DAV:   7    -0.108242637820E+05    0.55601E-03   -0.36867E-03 16640   0.368E-02    0.116E-01
DAV:   8    -0.108242637499E+05    0.32030E-04   -0.94487E-04 13456   0.241E-02
   15 T=  1102. E= -.10711576E+05 F= -.10824264E+05 E0= -.10824264E+05  EK= 0.21864E+03 SP= -.19E+03 SK= 0.87E+02
       N       E                     dE             d eps       ncg     rms          rms(c)
DAV:   1    -0.108230346388E+05    0.12291E+01   -0.40805E+00 16864   0.893E+00    0.163E+00
DAV:   2    -0.108238796450E+05   -0.84501E+00   -0.89415E+00 18592   0.276E+00    0.114E+00
DAV:   3    -0.108239020286E+05   -0.22384E-01   -0.39728E-01 19376   0.416E-01    0.963E-01
DAV:   4    -0.108238943172E+05    0.77114E-02   -0.62562E-02 20496   0.176E-01    0.630E-01
DAV:   5    -0.108238909102E+05    0.34070E-02   -0.37024E-02 19440   0.114E-01    0.315E-01
DAV:   6    -0.108238909282E+05   -0.18042E-04   -0.61295E-03 19568   0.681E-02    0.253E-01
DAV:   7    -0.108238904830E+05    0.44524E-03   -0.20553E-03 15776   0.308E-02    0.133E-01
DAV:   8    -0.108238903758E+05    0.10722E-03   -0.16744E-03 15904   0.265E-02    0.700E-02
DAV:   9    -0.108238903898E+05   -0.14034E-04   -0.17459E-04  8144   0.192E-02
   16 T=  1244. E= -.10711716E+05 F= -.10823890E+05 E0= -.10823890E+05  EK= 0.24684E+03 SP= -.23E+03 SK= 0.95E+02
       N       E                     dE             d eps       ncg     rms          rms(c)
DAV:   1    -0.108173959927E+05    0.64944E+01   -0.47770E+00 16880   0.950E+00    0.173E+00
DAV:   2    -0.108183777757E+05   -0.98178E+00   -0.10329E+01 18560   0.299E+00    0.107E+00
DAV:   3    -0.108184101620E+05   -0.32386E-01   -0.47894E-01 19472   0.459E-01    0.915E-01
DAV:   4    -0.108184045844E+05    0.55777E-02   -0.65831E-02 20752   0.188E-01    0.611E-01
DAV:   5    -0.108184012720E+05    0.33123E-02   -0.29698E-02 19360   0.106E-01    0.305E-01
DAV:   6    -0.108184012196E+05    0.52370E-04   -0.58964E-03 19536   0.629E-02    0.236E-01
DAV:   7    -0.108184008347E+05    0.38499E-03   -0.19751E-03 15712   0.310E-02    0.116E-01
DAV:   8    -0.108184007765E+05    0.58198E-04   -0.15070E-03 15776   0.255E-02    0.688E-02
DAV:   9    -0.108184007634E+05    0.13053E-04   -0.15932E-04  8016   0.185E-02
   17 T=  1384. E= -.10711809E+05 F= -.10818401E+05 E0= -.10818401E+05  EK= 0.27451E+03 SP= -.27E+03 SK= 0.99E+02
       N       E                     dE             d eps       ncg     rms          rms(c)
DAV:   1    -0.108059734017E+05    0.12427E+02   -0.54108E+00 17088   0.997E+00    0.181E+00
DAV:   2    -0.108071057453E+05   -0.11323E+01   -0.11809E+01 18608   0.313E+00    0.112E+00
DAV:   3    -0.108071405438E+05   -0.34798E-01   -0.51547E-01 19584   0.464E-01    0.955E-01
DAV:   4    -0.108071344658E+05    0.60780E-02   -0.71749E-02 20672   0.194E-01    0.631E-01
DAV:   5    -0.108071311173E+05    0.33485E-02   -0.31195E-02 19616   0.108E-01    0.317E-01
DAV:   6    -0.108071310711E+05    0.46203E-04   -0.61717E-03 19568   0.653E-02    0.240E-01
DAV:   7    -0.108071307073E+05    0.36372E-03   -0.19047E-03 15920   0.305E-02    0.121E-01
DAV:   8    -0.108071306339E+05    0.73424E-04   -0.12228E-03 14208   0.238E-02    0.689E-02
DAV:   9    -0.108071306415E+05   -0.75781E-05   -0.15231E-04  8000   0.184E-02
   18 T=  1514. E= -.10711901E+05 F= -.10807131E+05 E0= -.10807131E+05  EK= 0.30037E+03 SP= -.31E+03 SK= 0.10E+03
       N       E                     dE             d eps       ncg     rms          rms(c)
DAV:   1    -0.107886950060E+05    0.18436E+02   -0.68560E+00 17280   0.105E+01    0.200E+00
DAV:   2    -0.107900198281E+05   -0.13248E+01   -0.13794E+01 18544   0.330E+00    0.118E+00
DAV:   3    -0.107900647452E+05   -0.44917E-01   -0.62107E-01 19680   0.505E-01    0.102E+00
DAV:   4    -0.107900579249E+05    0.68203E-02   -0.88413E-02 20848   0.213E-01    0.659E-01
DAV:   5    -0.107900550442E+05    0.28807E-02   -0.36413E-02 19776   0.117E-01    0.346E-01
DAV:   6    -0.107900550366E+05    0.75836E-05   -0.64361E-03 19648   0.681E-02    0.262E-01
DAV:   7    -0.107900545950E+05    0.44161E-03   -0.23808E-03 17008   0.336E-02    0.129E-01
DAV:   8    -0.107900545449E+05    0.50068E-04   -0.14752E-03 16336   0.251E-02    0.754E-02
DAV:   9    -0.107900545531E+05   -0.82252E-05   -0.18049E-04  8496   0.176E-02
   19 T=  1630. E= -.10711960E+05 F= -.10790055E+05 E0= -.10790055E+05  EK= 0.32351E+03 SP= -.34E+03 SK= 0.98E+02
       N       E                     dE             d eps       ncg     rms          rms(c)
DAV:   1    -0.107663444320E+05    0.23710E+02   -0.87561E+00 17328   0.109E+01    0.220E+00
DAV:   2    -0.107678801619E+05   -0.15357E+01   -0.15965E+01 18576   0.347E+00    0.131E+00
DAV:   3    -0.107679313744E+05   -0.51212E-01   -0.69918E-01 19680   0.532E-01    0.112E+00
DAV:   4    -0.107679219298E+05    0.94446E-02   -0.11536E-01 20656   0.239E-01    0.696E-01
DAV:   5    -0.107679207939E+05    0.11359E-02   -0.48564E-02 19888   0.133E-01    0.415E-01
DAV:   6    -0.107679202964E+05    0.49754E-03   -0.60273E-03 19696   0.744E-02    0.311E-01
DAV:   7    -0.107679196298E+05    0.66659E-03   -0.55827E-03 17024   0.451E-02    0.123E-01
DAV:   8    -0.107679196658E+05   -0.35976E-04   -0.15173E-03 15888   0.294E-02    0.870E-02
DAV:   9    -0.107679196912E+05   -0.25427E-04   -0.34387E-04  9488   0.187E-02
   20 T=  1732. E= -.10712001E+05 F= -.10767920E+05 E0= -.10767920E+05  EK= 0.34364E+03 SP= -.38E+03 SK= 0.93E+02
       N       E                     dE             d eps       ncg     rms          rms(c)
DAV:   1    -0.107402410356E+05    0.27679E+02   -0.10918E+01 17248   0.113E+01    0.241E+00
DAV:   2    -0.107419983222E+05   -0.17573E+01   -0.18259E+01 18592   0.367E+00    0.144E+00
DAV:   3    -0.107420568554E+05   -0.58533E-01   -0.80185E-01 19952   0.572E-01    0.124E+00
DAV:   4    -0.107420441976E+05    0.12658E-01   -0.14495E-01 20592   0.269E-01    0.745E-01
DAV:   5    -0.107420446899E+05   -0.49237E-03   -0.60582E-02 19936   0.146E-01    0.486E-01
DAV:   6    -0.107420435401E+05    0.11498E-02   -0.72835E-03 20064   0.846E-02    0.359E-01
DAV:   7    -0.107420426790E+05    0.86111E-03   -0.99375E-03 17184   0.561E-02    0.133E-01
DAV:   8    -0.107420427354E+05   -0.56360E-04   -0.19811E-03 17584   0.355E-02    0.958E-02
DAV:   9    -0.107420428235E+05   -0.88153E-04   -0.82277E-04 13024   0.211E-02
   21 T=  1819. E= -.10712021E+05 F= -.10742043E+05 E0= -.10742043E+05  EK= 0.36101E+03 SP= -.42E+03 SK= 0.86E+02
       N       E                     dE             d eps       ncg     rms          rms(c)
DAV:   1    -0.107119686151E+05    0.30074E+02   -0.12442E+01 17168   0.115E+01    0.256E+00
DAV:   2    -0.107138780216E+05   -0.19094E+01   -0.19828E+01 18592   0.375E+00    0.154E+00
DAV:   3    -0.107139405494E+05   -0.62528E-01   -0.87054E-01 20192   0.595E-01    0.134E+00
DAV:   4    -0.107139252426E+05    0.15307E-01   -0.16421E-01 20512   0.288E-01    0.792E-01
DAV:   5    -0.107139262506E+05   -0.10081E-02   -0.66936E-02 19920   0.153E-01    0.527E-01
DAV:   6    -0.107139246700E+05    0.15806E-02   -0.82513E-03 20096   0.908E-02    0.385E-01
DAV:   7    -0.107139237031E+05    0.96700E-03   -0.11404E-02 16896   0.594E-02    0.139E-01
DAV:   8    -0.107139237922E+05   -0.89141E-04   -0.22004E-03 17888   0.378E-02    0.102E-01
DAV:   9    -0.107139239136E+05   -0.12141E-03   -0.80869E-04 12992   0.209E-02    0.786E-02
DAV:  10    -0.107139238428E+05    0.70784E-04   -0.76776E-05  7792   0.155E-02
   22 T=  1896. E= -.10712020E+05 F= -.10713924E+05 E0= -.10713924E+05  EK= 0.37614E+03 SP= -.45E+03 SK= 0.78E+02
       N       E                     dE             d eps       ncg     rms          rms(c)
DAV:   1    -0.106830122911E+05    0.30912E+02   -0.14176E+01 17168   0.118E+01    0.264E+00
DAV:   2    -0.106850647089E+05   -0.20524E+01   -0.21197E+01 18544   0.382E+00    0.163E+00
DAV:   3    -0.106851266272E+05   -0.61918E-01   -0.91059E-01 20416   0.613E-01    0.140E+00
DAV:   4    -0.106851100586E+05    0.16569E-01   -0.18542E-01 20464   0.304E-01    0.812E-01
DAV:   5    -0.106851110988E+05   -0.10403E-02   -0.62785E-02 19904   0.151E-01    0.543E-01
DAV:   6    -0.106851094188E+05    0.16801E-02   -0.81452E-03 20416   0.895E-02    0.384E-01
DAV:   7    -0.106851084971E+05    0.92170E-03   -0.10479E-02 17072   0.575E-02    0.135E-01
DAV:   8    -0.106851086172E+05   -0.12011E-03   -0.21445E-03 17792   0.372E-02    0.104E-01
DAV:   9    -0.106851087321E+05   -0.11495E-03   -0.53587E-04 11616   0.192E-02    0.826E-02
DAV:  10    -0.106851086549E+05    0.77230E-04   -0.77175E-05  7824   0.154E-02
   23 T=  1964. E= -.10712062E+05 F= -.10685109E+05 E0= -.10685109E+05  EK= 0.38963E+03 SP= -.48E+03 SK= 0.68E+02
       N       E                     dE             d eps       ncg     rms          rms(c)
DAV:   1    -0.106547967541E+05    0.30312E+02   -0.16044E+01 17024   0.120E+01    0.283E+00
DAV:   2    -0.106569714176E+05   -0.21747E+01   -0.22552E+01 18576   0.391E+00    0.171E+00
DAV:   3    -0.106570415565E+05   -0.70139E-01   -0.97614E-01 20336   0.631E-01    0.144E+00
DAV:   4    -0.106570241939E+05    0.17363E-01   -0.21363E-01 20224   0.324E-01    0.850E-01
DAV:   5    -0.106570275808E+05   -0.33869E-02   -0.70139E-02 19856   0.161E-01    0.627E-01
DAV:   6    -0.106570243614E+05    0.32194E-02   -0.10140E-02 20400   0.978E-02    0.434E-01
DAV:   7    -0.106570233524E+05    0.10090E-02   -0.16851E-02 17264   0.707E-02    0.148E-01
DAV:   8    -0.106570234861E+05   -0.13368E-03   -0.28753E-03 18128   0.446E-02    0.112E-01
DAV:   9    -0.106570236590E+05   -0.17287E-03   -0.99894E-04 14064   0.217E-02    0.969E-02
DAV:  10    -0.106570235027E+05    0.15632E-03   -0.83219E-05  7744   0.167E-02    0.762E-02
DAV:  11    -0.106570235800E+05   -0.77314E-04   -0.26831E-03 13088   0.291E-02    0.668E-02
DAV:  12    -0.106570235315E+05    0.48466E-04   -0.19127E-04  7952   0.180E-02
   24 T=  2027. E= -.10712106E+05 F= -.10657024E+05 E0= -.10657024E+05  EK= 0.40217E+03 SP= -.52E+03 SK= 0.58E+02
       N       E                     dE             d eps       ncg     rms          rms(c)
DAV:   1    -0.106286505995E+05    0.28373E+02   -0.17935E+01 17136   0.123E+01    0.289E+00
DAV:   2    -0.106309417334E+05   -0.22911E+01   -0.23643E+01 18592   0.398E+00    0.174E+00
DAV:   3    -0.106310157520E+05   -0.74019E-01   -0.10100E+00 20480   0.638E-01    0.143E+00
DAV:   4    -0.106310008925E+05    0.14859E-01   -0.22576E-01 20384   0.332E-01    0.852E-01
DAV:   5    -0.106310039786E+05   -0.30861E-02   -0.56891E-02 20000   0.154E-01    0.625E-01
DAV:   6    -0.106310005348E+05    0.34439E-02   -0.96056E-03 20336   0.903E-02    0.396E-01
DAV:   7    -0.106309999863E+05    0.54844E-03   -0.13383E-02 18528   0.642E-02    0.126E-01
DAV:   8    -0.106310001373E+05   -0.15097E-03   -0.22458E-03 17616   0.405E-02    0.104E-01
DAV:   9    -0.106310002435E+05   -0.10624E-03   -0.57770E-04 12048   0.198E-02    0.939E-02
DAV:  10    -0.106310000970E+05    0.14654E-03   -0.87401E-05  7856   0.165E-02    0.725E-02
DAV:  11    -0.106310000911E+05    0.58811E-05   -0.15796E-03 13200   0.239E-02    0.381E-02
DAV:  12    -0.106310001016E+05   -0.10453E-04   -0.14774E-04  7824   0.153E-02
   25 T=  2088. E= -.10712200E+05 F= -.10631000E+05 E0= -.10631000E+05  EK= 0.41436E+03 SP= -.54E+03 SK= 0.47E+02
       N       E                     dE             d eps       ncg     rms          rms(c)
DAV:   1    -0.106053140751E+05    0.25686E+02   -0.19336E+01 17120   0.125E+01    0.301E+00
DAV:   2    -0.106077094905E+05   -0.23954E+01   -0.24861E+01 18576   0.406E+00    0.178E+00
DAV:   3    -0.106077830564E+05   -0.73566E-01   -0.10686E+00 20352   0.667E-01    0.153E+00
DAV:   4    -0.106077635853E+05    0.19471E-01   -0.22884E-01 20448   0.340E-01    0.886E-01
DAV:   5    -0.106077654936E+05   -0.19083E-02   -0.72370E-02 20000   0.164E-01    0.609E-01
DAV:   6    -0.106077634106E+05    0.20829E-02   -0.10311E-02 20656   0.967E-02    0.429E-01
DAV:   7    -0.106077620612E+05    0.13495E-02   -0.12903E-02 17504   0.647E-02    0.154E-01
DAV:   8    -0.106077621708E+05   -0.10958E-03   -0.32492E-03 18336   0.432E-02    0.109E-01
DAV:   9    -0.106077622703E+05   -0.99567E-04   -0.49390E-04 11248   0.205E-02
   26 T=  2148. E= -.10712341E+05 F= -.10607762E+05 E0= -.10607762E+05  EK= 0.42624E+03 SP= -.57E+03 SK= 0.37E+02
       N       E                     dE             d eps       ncg     rms          rms(c)
DAV:   1    -0.105848080270E+05    0.22954E+02   -0.20499E+01 17344   0.127E+01    0.320E+00
DAV:   2    -0.105872562645E+05   -0.24482E+01   -0.25718E+01 18576   0.411E+00    0.184E+00
DAV:   3    -0.105873363394E+05   -0.80075E-01   -0.11488E+00 20304   0.693E-01    0.162E+00
DAV:   4    -0.105873131274E+05    0.23212E-01   -0.24958E-01 20304   0.357E-01    0.937E-01
DAV:   5    -0.105873163164E+05   -0.31889E-02   -0.94283E-02 19936   0.181E-01    0.670E-01
DAV:   6    -0.105873136480E+05    0.26684E-02   -0.12716E-02 20400   0.110E-01    0.492E-01
DAV:   7    -0.105873116925E+05    0.19555E-02   -0.19265E-02 16960   0.778E-02    0.176E-01
DAV:   8    -0.105873118115E+05   -0.11896E-03   -0.45592E-03 18672   0.509E-02    0.123E-01
DAV:   9    -0.105873119664E+05   -0.15493E-03   -0.10540E-03 14304   0.249E-02    0.809E-02
DAV:  10    -0.105873119024E+05    0.64033E-04   -0.77290E-05  7712   0.152E-02
   27 T=  2203. E= -.10712468E+05 F= -.10587312E+05 E0= -.10587312E+05  EK= 0.43717E+03 SP= -.59E+03 SK= 0.27E+02
       N       E                     dE             d eps       ncg     rms          rms(c)
DAV:   1    -0.105666216282E+05    0.20690E+02   -0.22177E+01 17248   0.129E+01    0.318E+00
DAV:   2    -0.105692275628E+05   -0.26059E+01   -0.27082E+01 18592   0.426E+00    0.197E+00
DAV:   3    -0.105693033949E+05   -0.75832E-01   -0.12065E+00 20320   0.709E-01    0.168E+00
DAV:   4    -0.105692792752E+05    0.24120E-01   -0.29113E-01 20304   0.372E-01    0.959E-01
DAV:   5    -0.105692824518E+05   -0.31765E-02   -0.84491E-02 20064   0.180E-01    0.681E-01
DAV:   6    -0.105692794258E+05    0.30260E-02   -0.11636E-02 20704   0.105E-01    0.470E-01
DAV:   7    -0.105692779309E+05    0.14949E-02   -0.17134E-02 17248   0.735E-02    0.156E-01
DAV:   8    -0.105692781193E+05   -0.18837E-03   -0.37696E-03 18816   0.482E-02    0.121E-01
DAV:   9    -0.105692782863E+05   -0.16701E-03   -0.88275E-04 14224   0.224E-02    0.959E-02
DAV:  10    -0.105692781595E+05    0.12687E-03   -0.70083E-05  7760   0.156E-02    0.777E-02
DAV:  11    -0.105692782014E+05   -0.41890E-04   -0.21325E-03 13120   0.265E-02    0.618E-02
DAV:  12    -0.105692781716E+05    0.29798E-04   -0.16658E-04  7856   0.170E-02
   28 T=  2248. E= -.10712586E+05 F= -.10569278E+05 E0= -.10569278E+05  EK= 0.44603E+03 SP= -.61E+03 SK= 0.18E+02
       N       E                     dE             d eps       ncg     rms          rms(c)
DAV:   1    -0.105503630961E+05    0.18915E+02   -0.23139E+01 17168   0.130E+01    0.320E+00
DAV:   2    -0.105530055234E+05   -0.26424E+01   -0.27474E+01 18592   0.431E+00    0.196E+00
DAV:   3    -0.105530911707E+05   -0.85647E-01   -0.12558E+00 20400   0.719E-01    0.164E+00
DAV:   4    -0.105530705316E+05    0.20639E-01   -0.29178E-01 20208   0.376E-01    0.950E-01
DAV:   5    -0.105530740741E+05   -0.35426E-02   -0.75073E-02 20080   0.174E-01    0.681E-01
DAV:   6    -0.105530707890E+05    0.32851E-02   -0.10777E-02 20688   0.998E-02    0.457E-01
DAV:   7    -0.105530696232E+05    0.11658E-02   -0.16121E-02 17408   0.711E-02    0.146E-01
DAV:   8    -0.105530698005E+05   -0.17728E-03   -0.32420E-03 18736   0.460E-02    0.116E-01
DAV:   9    -0.105530699553E+05   -0.15485E-03   -0.83391E-04 13968   0.214E-02    0.966E-02
DAV:  10    -0.105530698162E+05    0.13917E-03   -0.70834E-05  7856   0.160E-02    0.767E-02
DAV:  11    -0.105530698749E+05   -0.58742E-04   -0.23925E-03 13440   0.278E-02    0.643E-02
DAV:  12    -0.105530698482E+05    0.26709E-04   -0.18842E-04  8224   0.169E-02
   29 T=  2276. E= -.10712681E+05 F= -.10553070E+05 E0= -.10553070E+05  EK= 0.45152E+03 SP= -.62E+03 SK= 0.11E+02
       N       E                     dE             d eps       ncg     rms          rms(c)
DAV:   1    -0.105353216069E+05    0.17748E+02   -0.24026E+01 17104   0.131E+01    0.321E+00
DAV:   2    -0.105379885133E+05   -0.26669E+01   -0.27752E+01 18592   0.434E+00    0.191E+00
DAV:   3    -0.105380738142E+05   -0.85301E-01   -0.12617E+00 20480   0.725E-01    0.164E+00
DAV:   4    -0.105380526455E+05    0.21169E-01   -0.26592E-01 20400   0.366E-01    0.944E-01
DAV:   5    -0.105380541178E+05   -0.14723E-02   -0.74449E-02 20048   0.170E-01    0.631E-01
DAV:   6    -0.105380521572E+05    0.19606E-02   -0.11000E-02 20688   0.986E-02    0.434E-01
DAV:   7    -0.105380509061E+05    0.12511E-02   -0.11937E-02 17408   0.637E-02    0.154E-01
DAV:   8    -0.105380510026E+05   -0.96486E-04   -0.31811E-03 18864   0.429E-02    0.108E-01
DAV:   9    -0.105380511195E+05   -0.11689E-03   -0.61264E-04 12592   0.208E-02    0.791E-02
DAV:  10    -0.105380510678E+05    0.51682E-04   -0.74958E-05  7888   0.150E-02
   30 T=  2280. E= -.10712763E+05 F= -.10538051E+05 E0= -.10538051E+05  EK= 0.45247E+03 SP= -.63E+03 SK= 0.50E+01
       N       E                     dE             d eps       ncg     rms          rms(c)
DAV:   1    -0.105211086704E+05    0.16942E+02   -0.24775E+01 16992   0.130E+01    0.327E+00
DAV:   2    -0.105237703875E+05   -0.26617E+01   -0.27817E+01 18592   0.435E+00    0.191E+00
DAV:   3    -0.105238537045E+05   -0.83317E-01   -0.12541E+00 20432   0.738E-01    0.166E+00
DAV:   4    -0.105238309078E+05    0.22797E-01   -0.26256E-01 20464   0.367E-01    0.956E-01
DAV:   5    -0.105238319011E+05   -0.99323E-03   -0.83033E-02 20016   0.176E-01    0.626E-01
DAV:   6    -0.105238303353E+05    0.15657E-02   -0.12498E-02 20576   0.104E-01    0.450E-01
DAV:   7    -0.105238287153E+05    0.16200E-02   -0.12541E-02 17360   0.661E-02    0.169E-01
DAV:   8    -0.105238287831E+05   -0.67775E-04   -0.39466E-03 19072   0.456E-02    0.107E-01
DAV:   9    -0.105238289011E+05   -0.11798E-03   -0.69393E-04 13520   0.223E-02    0.746E-02
DAV:  10    -0.105238288727E+05    0.28341E-04   -0.69939E-05  7824   0.140E-02
   31 T=  2259. E= -.10712782E+05 F= -.10523829E+05 E0= -.10523829E+05  EK= 0.44829E+03 SP= -.64E+03 SK= 0.15E+01
       N       E                     dE             d eps       ncg     rms          rms(c)
DAV:   1    -0.105080643551E+05    0.15765E+02   -0.24999E+01 16944   0.129E+01    0.324E+00
DAV:   2    -0.105106753657E+05   -0.26110E+01   -0.27187E+01 18576   0.430E+00    0.192E+00
DAV:   3    -0.105107572820E+05   -0.81916E-01   -0.12039E+00 20576   0.725E-01    0.162E+00
DAV:   4    -0.105107369877E+05    0.20294E-01   -0.27831E-01 20208   0.371E-01    0.938E-01
DAV:   5    -0.105107403477E+05   -0.33599E-02   -0.76303E-02 19968   0.174E-01    0.670E-01
DAV:   6    -0.105107372158E+05    0.31318E-02   -0.11492E-02 20608   0.101E-01    0.451E-01
DAV:   7    -0.105107359787E+05    0.12371E-02   -0.16978E-02 17632   0.728E-02    0.147E-01
DAV:   8    -0.105107361291E+05   -0.15038E-03   -0.33294E-03 18832   0.469E-02    0.109E-01
DAV:   9    -0.105107362993E+05   -0.17022E-03   -0.96784E-04 14688   0.221E-02    0.953E-02
DAV:  10    -0.105107361671E+05    0.13228E-03   -0.71543E-05  7840   0.157E-02    0.748E-02
DAV:  11    -0.105107362172E+05   -0.50106E-04   -0.23284E-03 13376   0.276E-02    0.609E-02
DAV:  12    -0.105107362044E+05    0.12724E-04   -0.19085E-04  8048   0.169E-02
   32 T=  2215. E= -.10712717E+05 F= -.10510736E+05 E0= -.10510736E+05  EK= 0.43949E+03 SP= -.64E+03 SK= 0.63E-01
       N       E                     dE             d eps       ncg     rms          rms(c)
DAV:   1    -0.104971709490E+05    0.13565E+02   -0.25216E+01 16896   0.127E+01    0.318E+00
DAV:   2    -0.104997504460E+05   -0.25795E+01   -0.26724E+01 18528   0.425E+00    0.195E+00
DAV:   3    -0.104998286731E+05   -0.78227E-01   -0.11625E+00 20560   0.714E-01    0.160E+00
DAV:   4    -0.104998103592E+05    0.18314E-01   -0.29664E-01 20192   0.377E-01    0.939E-01
DAV:   5    -0.104998144316E+05   -0.40724E-02   -0.67353E-02 19936   0.171E-01    0.694E-01
DAV:   6    -0.104998103042E+05    0.41274E-02   -0.11725E-02 20640   0.983E-02    0.435E-01
DAV:   7    -0.104998096222E+05    0.68197E-03   -0.16165E-02 19248   0.706E-02    0.138E-01
DAV:   8    -0.104998097958E+05   -0.17358E-03   -0.27940E-03 18336   0.443E-02    0.112E-01
DAV:   9    -0.104998099442E+05   -0.14838E-03   -0.85087E-04 14400   0.216E-02    0.108E-01
DAV:  10    -0.104998097403E+05    0.20393E-03   -0.83360E-05  7920   0.170E-02    0.805E-02
DAV:  11    -0.104998097904E+05   -0.50149E-04   -0.26923E-03 14000   0.288E-02    0.584E-02
DAV:  12    -0.104998097786E+05    0.11795E-04   -0.20317E-04  8368   0.156E-02
   33 T=  2155. E= -.10712653E+05 F= -.10499810E+05 E0= -.10499804E+05  EK= 0.42753E+03 SP= -.64E+03 SK= 0.42E+00
       N       E                     dE             d eps       ncg     rms          rms(c)
DAV:   1    -0.104892932956E+05    0.10516E+02   -0.24207E+01 16880   0.124E+01    0.318E+00
DAV:   2    -0.104917852609E+05   -0.24920E+01   -0.25906E+01 18512   0.413E+00    0.190E+00
DAV:   3    -0.104918629658E+05   -0.77705E-01   -0.11488E+00 20576   0.711E-01    0.160E+00
DAV:   4    -0.104918436323E+05    0.19333E-01   -0.27763E-01 20240   0.368E-01    0.923E-01
DAV:   5    -0.104918475210E+05   -0.38886E-02   -0.72519E-02 19920   0.171E-01    0.669E-01
DAV:   6    -0.104918442399E+05    0.32811E-02   -0.11012E-02 20720   0.987E-02    0.442E-01
DAV:   7    -0.104918431189E+05    0.11210E-02   -0.17544E-02 18320   0.733E-02    0.143E-01
DAV:   8    -0.104918432609E+05   -0.14203E-03   -0.34031E-03 18752   0.477E-02    0.107E-01
DAV:   9    -0.104918434208E+05   -0.15992E-03   -0.92332E-04 14592   0.219E-02    0.960E-02
DAV:  10    -0.104918432668E+05    0.15406E-03   -0.67458E-05  7760   0.158E-02    0.731E-02
DAV:  11    -0.104918433348E+05   -0.68000E-04   -0.24794E-03 13792   0.278E-02    0.647E-02
DAV:  12    -0.104918433118E+05    0.22958E-04   -0.18636E-04  7968   0.160E-02
   34 T=  2086. E= -.10712615E+05 F= -.10491843E+05 E0= -.10491835E+05  EK= 0.41387E+03 SP= -.64E+03 SK= 0.21E+01
       N       E                     dE             d eps       ncg     rms          rms(c)
DAV:   1    -0.104844197343E+05    0.74236E+01   -0.22766E+01 17152   0.121E+01    0.314E+00
DAV:   2    -0.104868172121E+05   -0.23975E+01   -0.24937E+01 18544   0.402E+00    0.188E+00
DAV:   3    -0.104868909360E+05   -0.73724E-01   -0.11008E+00 20480   0.683E-01    0.158E+00
DAV:   4    -0.104868718539E+05    0.19082E-01   -0.27160E-01 20288   0.364E-01    0.905E-01
DAV:   5    -0.104868755410E+05   -0.36871E-02   -0.67850E-02 20048   0.166E-01    0.654E-01
DAV:   6    -0.104868724431E+05    0.30978E-02   -0.10121E-02 20688   0.959E-02    0.426E-01
DAV:   7    -0.104868714359E+05    0.10072E-02   -0.15681E-02 19040   0.693E-02    0.134E-01
DAV:   8    -0.104868715870E+05   -0.15108E-03   -0.27488E-03 18176   0.431E-02    0.101E-01
DAV:   9    -0.104868716787E+05   -0.91742E-04   -0.51299E-04 11984   0.199E-02
   35 T=  2013. E= -.10712597E+05 F= -.10486872E+05 E0= -.10486866E+05  EK= 0.39934E+03 SP= -.63E+03 SK= 0.47E+01
       N       E                     dE             d eps       ncg     rms          rms(c)
DAV:   1    -0.104822707328E+05    0.46009E+01   -0.21760E+01 17376   0.119E+01    0.321E+00
DAV:   2    -0.104845966993E+05   -0.23260E+01   -0.24433E+01 18576   0.393E+00    0.199E+00
DAV:   3    -0.104846719161E+05   -0.75217E-01   -0.11133E+00 20400   0.682E-01    0.167E+00
DAV:   4    -0.104846491954E+05    0.22721E-01   -0.30467E-01 20160   0.381E-01    0.966E-01
DAV:   5    -0.104846559651E+05   -0.67697E-02   -0.89264E-02 19936   0.183E-01    0.766E-01
DAV:   6    -0.104846504499E+05    0.55151E-02   -0.14087E-02 20368   0.112E-01    0.510E-01
DAV:   7    -0.104846488249E+05    0.16250E-02   -0.24601E-02 17568   0.862E-02    0.155E-01
DAV:   8    -0.104846490546E+05   -0.22969E-03   -0.38449E-03 18848   0.518E-02    0.115E-01
DAV:   9    -0.104846492196E+05   -0.16496E-03   -0.89733E-04 14112   0.218E-02    0.952E-02
DAV:  10    -0.104846490710E+05    0.14857E-03   -0.75296E-05  7776   0.166E-02    0.731E-02
DAV:  11    -0.104846491250E+05   -0.54038E-04   -0.21583E-03 13248   0.262E-02    0.578E-02
DAV:  12    -0.104846491076E+05    0.17385E-04   -0.15012E-04  7712   0.161E-02
   36 T=  1938. E= -.10712536E+05 F= -.10484649E+05 E0= -.10484648E+05  EK= 0.38453E+03 SP= -.62E+03 SK= 0.78E+01
       N       E                     dE             d eps       ncg     rms          rms(c)
DAV:   1    -0.104829701934E+05    0.16789E+01   -0.21663E+01 17248   0.118E+01    0.320E+00
DAV:   2    -0.104853154809E+05   -0.23453E+01   -0.24339E+01 18560   0.394E+00    0.214E+00
DAV:   3    -0.104853868296E+05   -0.71349E-01   -0.10996E+00 20432   0.670E-01    0.167E+00
DAV:   4    -0.104853682925E+05    0.18537E-01   -0.36503E-01 20032   0.398E-01    0.109E+00
DAV:   5    -0.104853763449E+05   -0.80524E-02   -0.81018E-02 19888   0.188E-01    0.893E-01
DAV:   6    -0.104853673999E+05    0.89450E-02   -0.22982E-02 20000   0.120E-01    0.507E-01
DAV:   7    -0.104853667000E+05    0.69990E-03   -0.23694E-02 19136   0.873E-02    0.173E-01
DAV:   8    -0.104853668820E+05   -0.18201E-03   -0.28701E-03 18336   0.477E-02    0.117E-01
DAV:   9    -0.104853670348E+05   -0.15279E-03   -0.10067E-03 14576   0.217E-02    0.107E-01
DAV:  10    -0.104853668691E+05    0.16571E-03   -0.83423E-05  8016   0.162E-02    0.816E-02
DAV:  11    -0.104853668776E+05   -0.85554E-05   -0.20645E-03 13792   0.261E-02    0.475E-02
DAV:  12    -0.104853668784E+05   -0.71002E-06   -0.15887E-04  8112   0.150E-02
   37 T=  1866. E= -.10712445E+05 F= -.10485367E+05 E0= -.10485367E+05  EK= 0.37034E+03 SP= -.61E+03 SK= 0.11E+02
       N       E                     dE             d eps       ncg     rms          rms(c)
DAV:   1    -0.104870390073E+05   -0.16721E+01   -0.20670E+01 17056   0.117E+01    0.319E+00
DAV:   2    -0.104893457297E+05   -0.23067E+01   -0.24075E+01 18496   0.395E+00    0.213E+00
DAV:   3    -0.104894167992E+05   -0.71069E-01   -0.11037E+00 20176   0.673E-01    0.170E+00
DAV:   4    -0.104893951643E+05    0.21635E-01   -0.36887E-01 19968   0.401E-01    0.106E+00
DAV:   5    -0.104894050620E+05   -0.98977E-02   -0.95563E-02 19808   0.197E-01    0.903E-01
DAV:   6    -0.104893955927E+05    0.94693E-02   -0.22751E-02 20000   0.126E-01    0.538E-01
DAV:   7    -0.104893942417E+05    0.13510E-02   -0.29042E-02 18560   0.945E-02    0.167E-01
DAV:   8    -0.104893944762E+05   -0.23450E-03   -0.34148E-03 18464   0.519E-02    0.119E-01
DAV:   9    -0.104893946414E+05   -0.16515E-03   -0.95498E-04 14432   0.216E-02    0.103E-01
DAV:  10    -0.104893944786E+05    0.16273E-03   -0.91284E-05  8032   0.167E-02    0.793E-02
DAV:  11    -0.104893945029E+05   -0.24222E-04   -0.20454E-03 13488   0.260E-02    0.500E-02
DAV:  12    -0.104893944936E+05    0.92210E-05   -0.14830E-04  7936   0.153E-02
   38 T=  1803. E= -.10712397E+05 F= -.10489394E+05 E0= -.10489394E+05  EK= 0.35767E+03 SP= -.59E+03 SK= 0.14E+02
       N       E                     dE             d eps       ncg     rms          rms(c)
DAV:   1    -0.104941697544E+05   -0.47753E+01   -0.18879E+01 17232   0.115E+01    0.302E+00
DAV:   2    -0.104963829990E+05   -0.22132E+01   -0.23115E+01 18560   0.386E+00    0.193E+00
DAV:   3    -0.104964512910E+05   -0.68292E-01   -0.10643E+00 20128   0.655E-01    0.162E+00
DAV:   4    -0.104964295957E+05    0.21695E-01   -0.28891E-01 20176   0.363E-01    0.921E-01
DAV:   5    -0.104964350694E+05   -0.54738E-02   -0.83061E-02 19936   0.180E-01    0.713E-01
DAV:   6    -0.104964308450E+05    0.42245E-02   -0.12259E-02 20304   0.105E-01    0.478E-01
DAV:   7    -0.104964292197E+05    0.16253E-02   -0.20932E-02 17440   0.799E-02    0.142E-01
DAV:   8    -0.104964294359E+05   -0.21619E-03   -0.34349E-03 18240   0.494E-02    0.105E-01
DAV:   9    -0.104964295786E+05   -0.14271E-03   -0.70035E-04 13104   0.213E-02    0.879E-02
DAV:  10    -0.104964294666E+05    0.11197E-03   -0.72341E-05  7760   0.157E-02    0.702E-02
DAV:  11    -0.104964294691E+05   -0.24823E-05   -0.14720E-03 12832   0.231E-02    0.423E-02
DAV:  12    -0.104964294650E+05    0.40462E-05   -0.11557E-04  7648   0.148E-02
   39 T=  1747. E= -.10712442E+05 F= -.10496429E+05 E0= -.10496429E+05  EK= 0.34662E+03 SP= -.58E+03 SK= 0.17E+02
       N       E                     dE             d eps       ncg     rms          rms(c)
DAV:   1    -0.105028439928E+05   -0.64145E+01   -0.17496E+01 17360   0.113E+01    0.300E+00
DAV:   2    -0.105049694280E+05   -0.21254E+01   -0.22210E+01 18560   0.378E+00    0.193E+00
DAV:   3    -0.105050305952E+05   -0.61167E-01   -0.10003E+00 19984   0.640E-01    0.161E+00
DAV:   4    -0.105050092431E+05    0.21352E-01   -0.30193E-01 20128   0.362E-01    0.907E-01
DAV:   5    -0.105050159884E+05   -0.67453E-02   -0.83417E-02 19936   0.183E-01    0.740E-01
DAV:   6    -0.105050105556E+05    0.54328E-02   -0.13645E-02 20320   0.107E-01    0.473E-01
DAV:   7    -0.105050091045E+05    0.14511E-02   -0.22681E-02 17888   0.825E-02    0.131E-01
DAV:   8    -0.105050093203E+05   -0.21585E-03   -0.31711E-03 18352   0.482E-02    0.961E-02
DAV:   9    -0.105050094450E+05   -0.12464E-03   -0.64846E-04 12768   0.202E-02    0.844E-02
DAV:  10    -0.105050093292E+05    0.11572E-03   -0.72519E-05  7776   0.159E-02    0.646E-02
DAV:  11    -0.105050093432E+05   -0.13930E-04   -0.14598E-03 12880   0.226E-02    0.420E-02
DAV:  12    -0.105050093409E+05    0.22955E-05   -0.11281E-04  7792   0.143E-02
   40 T=  1694. E= -.10712482E+05 F= -.10505009E+05 E0= -.10505009E+05  EK= 0.33619E+03 SP= -.56E+03 SK= 0.20E+02
       N       E                     dE             d eps       ncg     rms          rms(c)
DAV:   1    -0.105114848526E+05   -0.64755E+01   -0.16846E+01 17328   0.112E+01    0.298E+00
DAV:   2    -0.105135435948E+05   -0.20587E+01   -0.21520E+01 18528   0.374E+00    0.194E+00
DAV:   3    -0.105136054462E+05   -0.61851E-01   -0.10006E+00 20176   0.641E-01    0.160E+00
DAV:   4    -0.105135847190E+05    0.20727E-01   -0.31369E-01 19952   0.370E-01    0.915E-01
DAV:   5    -0.105135923587E+05   -0.76396E-02   -0.83040E-02 19872   0.182E-01    0.768E-01
DAV:   6    -0.105135857848E+05    0.65739E-02   -0.15766E-02 20144   0.111E-01    0.484E-01
DAV:   7    -0.105135844257E+05    0.13590E-02   -0.24088E-02 17824   0.850E-02    0.135E-01
DAV:   8    -0.105135846334E+05   -0.20764E-03   -0.31044E-03 18240   0.486E-02    0.101E-01
DAV:   9    -0.105135847760E+05   -0.14264E-03   -0.77716E-04 13328   0.208E-02    0.911E-02
DAV:  10    -0.105135846367E+05    0.13930E-03   -0.77469E-05  7840   0.166E-02    0.695E-02
DAV:  11    -0.105135846738E+05   -0.37040E-04   -0.19443E-03 13216   0.253E-02    0.513E-02
DAV:  12    -0.105135846645E+05    0.92356E-05   -0.13960E-04  7920   0.148E-02
   41 T=  1639. E= -.10712465E+05 F= -.10513585E+05 E0= -.10513585E+05  EK= 0.32527E+03 SP= -.55E+03 SK= 0.22E+02
       N       E                     dE             d eps       ncg     rms          rms(c)
DAV:   1    -0.105195463967E+05   -0.59617E+01   -0.15837E+01 17648   0.110E+01    0.283E+00
DAV:   2    -0.105215136592E+05   -0.19673E+01   -0.20577E+01 18560   0.362E+00    0.181E+00
DAV:   3    -0.105215733554E+05   -0.59696E-01   -0.94859E-01 20192   0.611E-01    0.153E+00
DAV:   4    -0.105215528715E+05    0.20484E-01   -0.24806E-01 20096   0.337E-01    0.865E-01
DAV:   5    -0.105215571869E+05   -0.43154E-02   -0.76087E-02 19920   0.169E-01    0.659E-01
DAV:   6    -0.105215534767E+05    0.37102E-02   -0.10675E-02 20320   0.100E-01    0.455E-01
DAV:   7    -0.105215520944E+05    0.13823E-02   -0.18467E-02 17008   0.745E-02    0.137E-01
DAV:   8    -0.105215522820E+05   -0.18761E-03   -0.30422E-03 18256   0.455E-02    0.104E-01
DAV:   9    -0.105215524338E+05   -0.15172E-03   -0.80720E-04 13536   0.213E-02    0.883E-02
DAV:  10    -0.105215523233E+05    0.11048E-03   -0.73842E-05  7824   0.160E-02    0.703E-02
DAV:  11    -0.105215523293E+05   -0.60435E-05   -0.15680E-03 12832   0.234E-02    0.433E-02
DAV:  12    -0.105215523147E+05    0.14607E-04   -0.11861E-04  7664   0.149E-02
   42 T=  1581. E= -.10712371E+05 F= -.10521552E+05 E0= -.10521552E+05  EK= 0.31370E+03 SP= -.53E+03 SK= 0.23E+02
       N       E                     dE             d eps       ncg     rms          rms(c)
DAV:   1    -0.105273508238E+05   -0.57985E+01   -0.14838E+01 17616   0.108E+01    0.275E+00
DAV:   2    -0.105292335939E+05   -0.18828E+01   -0.19682E+01 18560   0.353E+00    0.174E+00
DAV:   3    -0.105292934960E+05   -0.59902E-01   -0.90863E-01 20160   0.594E-01    0.147E+00
DAV:   4    -0.105292743880E+05    0.19108E-01   -0.22368E-01 20096   0.324E-01    0.857E-01
DAV:   5    -0.105292785172E+05   -0.41291E-02   -0.74828E-02 19952   0.164E-01    0.650E-01
DAV:   6    -0.105292747664E+05    0.37507E-02   -0.10517E-02 20224   0.101E-01    0.447E-01
DAV:   7    -0.105292736838E+05    0.10826E-02   -0.18854E-02 17216   0.745E-02    0.142E-01
DAV:   8    -0.105292738263E+05   -0.14251E-03   -0.27258E-03 18112   0.446E-02    0.109E-01
DAV:   9    -0.105292739975E+05   -0.17119E-03   -0.10532E-03 14096   0.222E-02    0.933E-02
DAV:  10    -0.105292738752E+05    0.12226E-03   -0.79116E-05  7744   0.159E-02    0.760E-02
DAV:  11    -0.105292738886E+05   -0.13401E-04   -0.19808E-03 12896   0.263E-02    0.489E-02
DAV:  12    -0.105292738661E+05    0.22502E-04   -0.15167E-04  7728   0.163E-02
   43 T=  1523. E= -.10712275E+05 F= -.10529274E+05 E0= -.10529274E+05  EK= 0.30213E+03 SP= -.51E+03 SK= 0.24E+02
       N       E                     dE             d eps       ncg     rms          rms(c)
DAV:   1    -0.105353157861E+05   -0.60419E+01   -0.13711E+01 17632   0.107E+01    0.263E+00
DAV:   2    -0.105370971804E+05   -0.17814E+01   -0.18532E+01 18512   0.344E+00    0.170E+00
DAV:   3    -0.105371535513E+05   -0.56371E-01   -0.84028E-01 20288   0.571E-01    0.141E+00
DAV:   4    -0.105371366230E+05    0.16928E-01   -0.21514E-01 20048   0.316E-01    0.843E-01
DAV:   5    -0.105371414296E+05   -0.48066E-02   -0.68456E-02 19904   0.159E-01    0.660E-01
DAV:   6    -0.105371368761E+05    0.45534E-02   -0.11665E-02 19872   0.102E-01    0.432E-01
DAV:   7    -0.105371361923E+05    0.68385E-03   -0.19098E-02 17680   0.751E-02    0.144E-01
DAV:   8    -0.105371362977E+05   -0.10544E-03   -0.24454E-03 17856   0.440E-02    0.105E-01
DAV:   9    -0.105371364738E+05   -0.17611E-03   -0.11093E-03 14288   0.219E-02    0.976E-02
DAV:  10    -0.105371363281E+05    0.14568E-03   -0.77110E-05  7712   0.160E-02    0.778E-02
DAV:  11    -0.105371363497E+05   -0.21588E-04   -0.22338E-03 13408   0.273E-02    0.503E-02
DAV:  12    -0.105371363366E+05    0.13064E-04   -0.16889E-04  7920   0.159E-02
   44 T=  1468. E= -.10712208E+05 F= -.10537136E+05 E0= -.10537136E+05  EK= 0.29123E+03 SP= -.49E+03 SK= 0.24E+02
       N       E                     dE             d eps       ncg     rms          rms(c)
DAV:   1    -0.105434748788E+05   -0.63385E+01   -0.12174E+01 17728   0.103E+01    0.249E+00
DAV:   2    -0.105451349658E+05   -0.16601E+01   -0.17252E+01 18512   0.329E+00    0.157E+00
DAV:   3    -0.105451885276E+05   -0.53562E-01   -0.78994E-01 20384   0.551E-01    0.132E+00
DAV:   4    -0.105451738375E+05    0.14690E-01   -0.17670E-01 20176   0.291E-01    0.781E-01
DAV:   5    -0.105451762496E+05   -0.24121E-02   -0.57347E-02 19856   0.145E-01    0.564E-01
DAV:   6    -0.105451736488E+05    0.26008E-02   -0.81909E-03 20016   0.890E-02    0.386E-01
DAV:   7    -0.105451728866E+05    0.76220E-03   -0.13535E-02 16944   0.641E-02    0.130E-01
DAV:   8    -0.105451729832E+05   -0.96648E-04   -0.21672E-03 17872   0.397E-02    0.100E-01
DAV:   9    -0.105451731323E+05   -0.14907E-03   -0.92108E-04 13824   0.209E-02    0.874E-02
DAV:  10    -0.105451730200E+05    0.11231E-03   -0.73310E-05  7680   0.154E-02    0.705E-02
DAV:  11    -0.105451730420E+05   -0.22051E-04   -0.18674E-03 12816   0.253E-02    0.487E-02
DAV:  12    -0.105451730204E+05    0.21623E-04   -0.14210E-04  7648   0.160E-02
   45 T=  1417. E= -.10712175E+05 F= -.10545173E+05 E0= -.10545173E+05  EK= 0.28124E+03 SP= -.47E+03 SK= 0.23E+02
       N       E                     dE             d eps       ncg     rms          rms(c)
DAV:   1    -0.105516558167E+05   -0.64828E+01   -0.10815E+01 17568   0.101E+01    0.240E+00
DAV:   2    -0.105532104810E+05   -0.15547E+01   -0.16189E+01 18592   0.319E+00    0.146E+00
DAV:   3    -0.105532616083E+05   -0.51127E-01   -0.74512E-01 20096   0.531E-01    0.125E+00
DAV:   4    -0.105532487905E+05    0.12818E-01   -0.14891E-01 20320   0.271E-01    0.736E-01
DAV:   5    -0.105532493366E+05   -0.54613E-03   -0.51096E-02 19792   0.137E-01    0.490E-01
DAV:   6    -0.105532479744E+05    0.13622E-02   -0.69536E-03 20064   0.812E-02    0.346E-01
DAV:   7    -0.105532471309E+05    0.84350E-03   -0.87863E-03 16960   0.536E-02    0.123E-01
DAV:   8    -0.105532472010E+05   -0.70150E-04   -0.18525E-03 17392   0.343E-02    0.890E-02
DAV:   9    -0.105532472701E+05   -0.69047E-04   -0.31135E-04  9136   0.185E-02
   46 T=  1372. E= -.10712141E+05 F= -.10553247E+05 E0= -.10553247E+05  EK= 0.27222E+03 SP= -.45E+03 SK= 0.22E+02
       N       E                     dE             d eps       ncg     rms          rms(c)
DAV:   1    -0.105597825678E+05   -0.65354E+01   -0.96692E+00 17632   0.988E+00    0.241E+00
DAV:   2    -0.105612475105E+05   -0.14649E+01   -0.15423E+01 18496   0.310E+00    0.143E+00
DAV:   3    -0.105612991319E+05   -0.51621E-01   -0.72938E-01 19968   0.528E-01    0.125E+00
DAV:   4    -0.105612856068E+05    0.13525E-01   -0.14200E-01 20256   0.266E-01    0.740E-01
DAV:   5    -0.105612861663E+05   -0.55951E-03   -0.61458E-02 19824   0.146E-01    0.496E-01
DAV:   6    -0.105612849903E+05    0.11760E-02   -0.84306E-03 19984   0.872E-02    0.378E-01
DAV:   7    -0.105612837810E+05    0.12092E-02   -0.10380E-02 16960   0.584E-02    0.146E-01
DAV:   8    -0.105612838177E+05   -0.36649E-04   -0.25532E-03 17696   0.378E-02    0.962E-02
DAV:   9    -0.105612838858E+05   -0.68091E-04   -0.59685E-04 12240   0.211E-02
   47 T=  1332. E= -.10712088E+05 F= -.10561284E+05 E0= -.10561284E+05  EK= 0.26424E+03 SP= -.44E+03 SK= 0.21E+02
       N       E                     dE             d eps       ncg     rms          rms(c)
DAV:   1    -0.105679385915E+05   -0.66548E+01   -0.88918E+00 17488   0.970E+00    0.230E+00
DAV:   2    -0.105693562916E+05   -0.14177E+01   -0.14806E+01 18608   0.304E+00    0.150E+00
DAV:   3    -0.105694018077E+05   -0.45516E-01   -0.68011E-01 19904   0.505E-01    0.125E+00
DAV:   4    -0.105693880608E+05    0.13747E-01   -0.15270E-01 20208   0.266E-01    0.745E-01
DAV:   5    -0.105693897155E+05   -0.16547E-02   -0.59033E-02 19840   0.147E-01    0.540E-01
DAV:   6    -0.105693874972E+05    0.22184E-02   -0.79623E-03 19792   0.861E-02    0.379E-01
DAV:   7    -0.105693865218E+05    0.97538E-03   -0.11781E-02 17168   0.600E-02    0.131E-01
DAV:   8    -0.105693866282E+05   -0.10640E-03   -0.18787E-03 17216   0.363E-02    0.942E-02
DAV:   9    -0.105693867246E+05   -0.96384E-04   -0.44940E-04 10384   0.192E-02
   48 T=  1298. E= -.10712028E+05 F= -.10569387E+05 E0= -.10569387E+05  EK= 0.25747E+03 SP= -.42E+03 SK= 0.19E+02
       N       E                     dE             d eps       ncg     rms          rms(c)
DAV:   1    -0.105763504780E+05   -0.69638E+01   -0.83319E+00 17248   0.956E+00    0.230E+00
DAV:   2    -0.105777207366E+05   -0.13703E+01   -0.14394E+01 18624   0.301E+00    0.153E+00
DAV:   3    -0.105777671563E+05   -0.46420E-01   -0.68423E-01 19984   0.501E-01    0.128E+00
DAV:   4    -0.105777517945E+05    0.15362E-01   -0.15917E-01 20048   0.272E-01    0.771E-01
DAV:   5    -0.105777547689E+05   -0.29744E-02   -0.69837E-02 19744   0.156E-01    0.598E-01
DAV:   6    -0.105777514590E+05    0.33098E-02   -0.10370E-02 19488   0.962E-02    0.417E-01
DAV:   7    -0.105777503912E+05    0.10679E-02   -0.15236E-02 17440   0.668E-02    0.147E-01
DAV:   8    -0.105777505206E+05   -0.12943E-03   -0.19458E-03 17504   0.387E-02    0.106E-01
DAV:   9    -0.105777506308E+05   -0.11018E-03   -0.45832E-04 10768   0.189E-02    0.855E-02
DAV:  10    -0.105777505530E+05    0.77799E-04   -0.89419E-05  7808   0.156E-02
   49 T=  1271. E= -.10711971E+05 F= -.10577751E+05 E0= -.10577751E+05  EK= 0.25212E+03 SP= -.40E+03 SK= 0.16E+02
       N       E                     dE             d eps       ncg     rms          rms(c)
DAV:   1    -0.105852201994E+05   -0.74696E+01   -0.76973E+00 17488   0.946E+00    0.221E+00
DAV:   2    -0.105865398225E+05   -0.13196E+01   -0.13797E+01 18624   0.294E+00    0.157E+00
DAV:   3    -0.105865794028E+05   -0.39580E-01   -0.64430E-01 20016   0.488E-01    0.131E+00
DAV:   4    -0.105865625699E+05    0.16833E-01   -0.16537E-01 19824   0.272E-01    0.784E-01
DAV:   5    -0.105865660333E+05   -0.34634E-02   -0.75043E-02 19616   0.161E-01    0.627E-01
DAV:   6    -0.105865622673E+05    0.37660E-02   -0.11409E-02 19456   0.996E-02    0.435E-01
DAV:   7    -0.105865611111E+05    0.11562E-02   -0.17343E-02 18176   0.704E-02    0.156E-01
DAV:   8    -0.105865612543E+05   -0.14318E-03   -0.20276E-03 17456   0.398E-02    0.113E-01
DAV:   9    -0.105865613822E+05   -0.12795E-03   -0.58218E-04 12208   0.191E-02    0.972E-02
DAV:  10    -0.105865612437E+05    0.13848E-03   -0.83629E-05  7936   0.163E-02    0.735E-02
DAV:  11    -0.105865612135E+05    0.30192E-04   -0.12068E-03 12720   0.209E-02    0.234E-02
DAV:  12    -0.105865612225E+05   -0.89816E-05   -0.93608E-05  7520   0.128E-02
   50 T=  1252. E= -.10711918E+05 F= -.10586561E+05 E0= -.10586561E+05  EK= 0.24838E+03 SP= -.39E+03 SK= 0.14E+02
       N       E                     dE             d eps       ncg     rms          rms(c)
DAV:   1    -0.105946433812E+05   -0.80822E+01   -0.72352E+00 17488   0.934E+00    0.213E+00
DAV:   2    -0.105959033030E+05   -0.12599E+01   -0.13136E+01 18608   0.291E+00    0.152E+00
DAV:   3    -0.105959456565E+05   -0.42353E-01   -0.62395E-01 20032   0.472E-01    0.122E+00
DAV:   4    -0.105959322974E+05    0.13359E-01   -0.15745E-01 19920   0.265E-01    0.763E-01
DAV:   5    -0.105959361261E+05   -0.38288E-02   -0.60375E-02 19584   0.148E-01    0.623E-01
DAV:   6    -0.105959317633E+05    0.43629E-02   -0.11302E-02 19216   0.952E-02    0.402E-01
DAV:   7    -0.105959310701E+05    0.69317E-03   -0.15266E-02 18032   0.671E-02    0.140E-01
DAV:   8    -0.105959312036E+05   -0.13348E-03   -0.16381E-03 17008   0.376E-02    0.980E-02
DAV:   9    -0.105959313395E+05   -0.13593E-03   -0.67014E-04 12928   0.189E-02    0.942E-02
DAV:  10    -0.105959311915E+05    0.14803E-03   -0.87925E-05  7840   0.168E-02    0.708E-02
DAV:  11    -0.105959311951E+05   -0.35900E-05   -0.15403E-03 12784   0.229E-02    0.325E-02
DAV:  12    -0.105959311996E+05   -0.45135E-05   -0.10031E-04  7536   0.126E-02
   51 T=  1241. E= -.10711891E+05 F= -.10595931E+05 E0= -.10595931E+05  EK= 0.24630E+03 SP= -.37E+03 SK= 0.12E+02
       N       E                     dE             d eps       ncg     rms          rms(c)
DAV:   1    -0.106044729748E+05   -0.85418E+01   -0.66313E+00 17728   0.933E+00    0.207E+00
DAV:   2    -0.106056861969E+05   -0.12132E+01   -0.12677E+01 18576   0.288E+00    0.140E+00
DAV:   3    -0.106057270535E+05   -0.40857E-01   -0.60988E-01 20000   0.473E-01    0.118E+00
DAV:   4    -0.106057142324E+05    0.12821E-01   -0.13193E-01 19952   0.248E-01    0.697E-01
DAV:   5    -0.106057159259E+05   -0.16935E-02   -0.58302E-02 19632   0.143E-01    0.520E-01
DAV:   6    -0.106057135244E+05    0.24015E-02   -0.80796E-03 19520   0.873E-02    0.370E-01
DAV:   7    -0.106057125865E+05    0.93798E-03   -0.12255E-02 17008   0.604E-02    0.127E-01
DAV:   8    -0.106057127010E+05   -0.11457E-03   -0.17088E-03 17040   0.354E-02    0.931E-02
DAV:   9    -0.106057128073E+05   -0.10625E-03   -0.49271E-04 11200   0.190E-02    0.776E-02
DAV:  10    -0.106057127459E+05    0.61387E-04   -0.82760E-05  7664   0.149E-02
   52 T=  1238. E= -.10711885E+05 F= -.10605713E+05 E0= -.10605713E+05  EK= 0.24569E+03 SP= -.36E+03 SK= 0.96E+01
       N       E                     dE             d eps       ncg     rms          rms(c)
DAV:   1    -0.106142599332E+05   -0.85471E+01   -0.61379E+00 17856   0.932E+00    0.209E+00
DAV:   2    -0.106154440914E+05   -0.11842E+01   -0.12474E+01 18624   0.285E+00    0.132E+00
DAV:   3    -0.106154837505E+05   -0.39659E-01   -0.60428E-01 19888   0.471E-01    0.118E+00
DAV:   4    -0.106154710108E+05    0.12740E-01   -0.11027E-01 20064   0.235E-01    0.709E-01
DAV:   5    -0.106154698616E+05    0.11493E-02   -0.63824E-02 19216   0.146E-01    0.432E-01
DAV:   6    -0.106154693130E+05    0.54854E-03   -0.94415E-03 19280   0.891E-02    0.358E-01
DAV:   7    -0.106154681081E+05    0.12049E-02   -0.71881E-03 16720   0.503E-02    0.160E-01
DAV:   8    -0.106154680733E+05    0.34829E-04   -0.25114E-03 17120   0.334E-02    0.982E-02
DAV:   9    -0.106154681084E+05   -0.35131E-04   -0.24206E-04  8160   0.207E-02
   53 T=  1240. E= -.10711886E+05 F= -.10615468E+05 E0= -.10615468E+05  EK= 0.24608E+03 SP= -.35E+03 SK= 0.77E+01
       N       E                     dE             d eps       ncg     rms          rms(c)
DAV:   1    -0.106233951873E+05   -0.79271E+01   -0.62472E+00 18096   0.937E+00    0.211E+00
DAV:   2    -0.106245766926E+05   -0.11815E+01   -0.12442E+01 18624   0.288E+00    0.132E+00
DAV:   3    -0.106246213987E+05   -0.44706E-01   -0.61940E-01 20064   0.469E-01    0.113E+00
DAV:   4    -0.106246098945E+05    0.11504E-01   -0.12313E-01 20032   0.248E-01    0.673E-01
DAV:   5    -0.106246118407E+05   -0.19461E-02   -0.56005E-02 19728   0.138E-01    0.499E-01
DAV:   6    -0.106246096478E+05    0.21928E-02   -0.78177E-03 19440   0.868E-02    0.360E-01
DAV:   7    -0.106246087786E+05    0.86919E-03   -0.12506E-02 16640   0.610E-02    0.129E-01
DAV:   8    -0.106246088531E+05   -0.74517E-04   -0.19193E-03 17088   0.362E-02    0.940E-02
DAV:   9    -0.106246089411E+05   -0.87985E-04   -0.72469E-04 12672   0.211E-02
   54 T=  1244. E= -.10711878E+05 F= -.10624609E+05 E0= -.10624609E+05  EK= 0.24688E+03 SP= -.34E+03 SK= 0.60E+01
       N       E                     dE             d eps       ncg     rms          rms(c)
DAV:   1    -0.106313774548E+05   -0.67686E+01   -0.65812E+00 17584   0.946E+00    0.215E+00
DAV:   2    -0.106326121161E+05   -0.12347E+01   -0.12979E+01 18624   0.293E+00    0.149E+00
DAV:   3    -0.106326543678E+05   -0.42252E-01   -0.64380E-01 19952   0.485E-01    0.126E+00
DAV:   4    -0.106326390034E+05    0.15364E-01   -0.15171E-01 19968   0.267E-01    0.749E-01
DAV:   5    -0.106326427762E+05   -0.37728E-02   -0.78003E-02 19600   0.161E-01    0.601E-01
DAV:   6    -0.106326386623E+05    0.41139E-02   -0.12750E-02 19360   0.105E-01    0.406E-01
DAV:   7    -0.106326379323E+05    0.72999E-03   -0.17984E-02 18800   0.709E-02    0.157E-01
DAV:   8    -0.106326379884E+05   -0.56040E-04   -0.17010E-03 17120   0.367E-02    0.103E-01
DAV:   9    -0.106326381135E+05   -0.12512E-03   -0.74187E-04 13024   0.199E-02    0.867E-02
DAV:  10    -0.106326380129E+05    0.10065E-03   -0.71209E-05  7776   0.150E-02    0.673E-02
DAV:  11    -0.106326379809E+05    0.31924E-04   -0.98116E-04 12432   0.198E-02
   55 T=  1248. E= -.10711870E+05 F= -.10632638E+05 E0= -.10632638E+05  EK= 0.24755E+03 SP= -.33E+03 SK= 0.46E+01
       N       E                     dE             d eps       ncg     rms          rms(c)
DAV:   1    -0.106381506769E+05   -0.55127E+01   -0.67042E+00 17424   0.953E+00    0.206E+00
DAV:   2    -0.106394092182E+05   -0.12585E+01   -0.13103E+01 18608   0.296E+00    0.148E+00
DAV:   3    -0.106394496747E+05   -0.40456E-01   -0.62672E-01 20048   0.478E-01    0.122E+00
DAV:   4    -0.106394358239E+05    0.13851E-01   -0.14030E-01 20032   0.257E-01    0.737E-01
DAV:   5    -0.106394379120E+05   -0.20881E-02   -0.62223E-02 19824   0.146E-01    0.547E-01
DAV:   6    -0.106394351411E+05    0.27709E-02   -0.90546E-03 19616   0.921E-02    0.377E-01
DAV:   7    -0.106394344307E+05    0.71042E-03   -0.13312E-02 17984   0.618E-02    0.141E-01
DAV:   8    -0.106394345220E+05   -0.91274E-04   -0.15970E-03 16992   0.358E-02    0.104E-01
DAV:   9    -0.106394346544E+05   -0.13243E-03   -0.69489E-04 12816   0.190E-02    0.927E-02
DAV:  10    -0.106394345199E+05    0.13450E-03   -0.75845E-05  7680   0.161E-02    0.720E-02
DAV:  11    -0.106394345173E+05    0.26088E-05   -0.15695E-03 12864   0.231E-02    0.338E-02
DAV:  12    -0.106394345185E+05   -0.11509E-05   -0.11235E-04  7728   0.131E-02
   56 T=  1250. E= -.10711847E+05 F= -.10639435E+05 E0= -.10639435E+05  EK= 0.24800E+03 SP= -.32E+03 SK= 0.34E+01
       N       E                     dE             d eps       ncg     rms          rms(c)
DAV:   1    -0.106439784676E+05   -0.45440E+01   -0.67834E+00 17520   0.955E+00    0.208E+00
DAV:   2    -0.106452430997E+05   -0.12646E+01   -0.13207E+01 18608   0.297E+00    0.140E+00
DAV:   3    -0.106452869748E+05   -0.43875E-01   -0.63363E-01 20048   0.479E-01    0.117E+00
DAV:   4    -0.106452748607E+05    0.12114E-01   -0.12701E-01 20128   0.250E-01    0.706E-01
DAV:   5    -0.106452760025E+05   -0.11417E-02   -0.54919E-02 19808   0.139E-01    0.499E-01
DAV:   6    -0.106452740014E+05    0.20011E-02   -0.73129E-03 19648   0.845E-02    0.357E-01
DAV:   7    -0.106452732363E+05    0.76509E-03   -0.10406E-02 16800   0.559E-02    0.128E-01
DAV:   8    -0.106452733302E+05   -0.93907E-04   -0.15052E-03 16144   0.329E-02    0.982E-02
DAV:   9    -0.106452734407E+05   -0.11055E-03   -0.61672E-04 12304   0.191E-02    0.786E-02
DAV:  10    -0.106452733676E+05    0.73117E-04   -0.72033E-05  7712   0.144E-02
   57 T=  1252. E= -.10711824E+05 F= -.10645273E+05 E0= -.10645273E+05  EK= 0.24847E+03 SP= -.32E+03 SK= 0.23E+01
       N       E                     dE             d eps       ncg     rms          rms(c)
DAV:   1    -0.106491578561E+05   -0.38844E+01   -0.63991E+00 17584   0.948E+00    0.211E+00
DAV:   2    -0.106504103664E+05   -0.12525E+01   -0.13139E+01 18608   0.294E+00    0.136E+00
DAV:   3    -0.106504516724E+05   -0.41306E-01   -0.62521E-01 20016   0.478E-01    0.120E+00
DAV:   4    -0.106504386853E+05    0.12987E-01   -0.11353E-01 20400   0.240E-01    0.720E-01
DAV:   5    -0.106504374401E+05    0.12452E-02   -0.61046E-02 19152   0.144E-01    0.440E-01
DAV:   6    -0.106504368905E+05    0.54951E-03   -0.93881E-03 19568   0.874E-02    0.361E-01
DAV:   7    -0.106504357851E+05    0.11055E-02   -0.62697E-03 17184   0.474E-02    0.166E-01
DAV:   8    -0.106504357400E+05    0.45096E-04   -0.21387E-03 17264   0.315E-02    0.105E-01
DAV:   9    -0.106504357808E+05   -0.40793E-04   -0.19301E-04  8000   0.183E-02
   58 T=  1256. E= -.10711791E+05 F= -.10650436E+05 E0= -.10650436E+05  EK= 0.24927E+03 SP= -.31E+03 SK= 0.15E+01
       N       E                     dE             d eps       ncg     rms          rms(c)
DAV:   1    -0.106538795733E+05   -0.34438E+01   -0.65048E+00 17600   0.949E+00    0.210E+00
DAV:   2    -0.106551341275E+05   -0.12546E+01   -0.13135E+01 18576   0.300E+00    0.126E+00
DAV:   3    -0.106551812922E+05   -0.47165E-01   -0.62918E-01 20032   0.472E-01    0.107E+00
DAV:   4    -0.106551719322E+05    0.93600E-02   -0.10552E-01 20432   0.234E-01    0.648E-01
DAV:   5    -0.106551719492E+05   -0.17010E-04   -0.41946E-02 19632   0.122E-01    0.425E-01
DAV:   6    -0.106551710434E+05    0.90582E-03   -0.58149E-03 19792   0.731E-02    0.321E-01
DAV:   7    -0.106551702383E+05    0.80502E-03   -0.67012E-03 16496   0.474E-02    0.123E-01
DAV:   8    -0.106551702770E+05   -0.38631E-04   -0.16589E-03 16064   0.307E-02    0.899E-02
DAV:   9    -0.106551703147E+05   -0.37708E-04   -0.26925E-04  8768   0.182E-02
   59 T=  1263. E= -.10711802E+05 F= -.10655170E+05 E0= -.10655170E+05  EK= 0.25055E+03 SP= -.31E+03 SK= 0.84E+00
       N       E                     dE             d eps       ncg     rms          rms(c)
DAV:   1    -0.106582354664E+05   -0.30652E+01   -0.68342E+00 17584   0.959E+00    0.208E+00
DAV:   2    -0.106595369061E+05   -0.13014E+01   -0.13558E+01 18624   0.308E+00    0.130E+00
DAV:   3    -0.106595838808E+05   -0.46975E-01   -0.65163E-01 19872   0.484E-01    0.109E+00
DAV:   4    -0.106595743047E+05    0.95760E-02   -0.11037E-01 20624   0.235E-01    0.672E-01
DAV:   5    -0.106595737749E+05    0.52979E-03   -0.44674E-02 19648   0.128E-01    0.431E-01
DAV:   6    -0.106595728824E+05    0.89249E-03   -0.61705E-03 19552   0.748E-02    0.317E-01
DAV:   7    -0.106595721233E+05    0.75913E-03   -0.64086E-03 16752   0.468E-02    0.128E-01
DAV:   8    -0.106595721579E+05   -0.34596E-04   -0.14607E-03 15680   0.299E-02    0.902E-02
DAV:   9    -0.106595722113E+05   -0.53419E-04   -0.36461E-04 10096   0.181E-02
   60 T=  1272. E= -.10711783E+05 F= -.10659572E+05 E0= -.10659572E+05  EK= 0.25246E+03 SP= -.31E+03 SK= 0.39E+00
       N       E                     dE             d eps       ncg     rms          rms(c)
DAV:   1    -0.106624436550E+05   -0.28715E+01   -0.71076E+00 17520   0.970E+00    0.210E+00
DAV:   2    -0.106637589924E+05   -0.13153E+01   -0.13725E+01 18560   0.313E+00    0.132E+00
DAV:   3    -0.106638079181E+05   -0.48926E-01   -0.67757E-01 19792   0.508E-01    0.112E+00
DAV:   4    -0.106637977311E+05    0.10187E-01   -0.11934E-01 20416   0.244E-01    0.681E-01
DAV:   5    -0.106637976954E+05    0.35659E-04   -0.49941E-02 19744   0.135E-01    0.448E-01
DAV:   6    -0.106637966201E+05    0.10753E-02   -0.65575E-03 19856   0.786E-02    0.330E-01
DAV:   7    -0.106637958171E+05    0.80297E-03   -0.75277E-03 16912   0.494E-02    0.131E-01
DAV:   8    -0.106637958645E+05   -0.47364E-04   -0.14006E-03 15168   0.305E-02    0.942E-02
DAV:   9    -0.106637959380E+05   -0.73537E-04   -0.50116E-04 11440   0.184E-02
   61 T=  1286. E= -.10711777E+05 F= -.10663796E+05 E0= -.10663796E+05  EK= 0.25509E+03 SP= -.30E+03 SK= 0.12E+00
       N       E                     dE             d eps       ncg     rms          rms(c)
DAV:   1    -0.106665320330E+05   -0.27362E+01   -0.69917E+00 17600   0.972E+00    0.210E+00
DAV:   2    -0.106678419359E+05   -0.13099E+01   -0.13688E+01 18576   0.314E+00    0.131E+00
DAV:   3    -0.106678893091E+05   -0.47373E-01   -0.66742E-01 19696   0.503E-01    0.113E+00
DAV:   4    -0.106678789110E+05    0.10398E-01   -0.11632E-01 20320   0.237E-01    0.684E-01
DAV:   5    -0.106678784903E+05    0.42067E-03   -0.51921E-02 19760   0.137E-01    0.438E-01
DAV:   6    -0.106678776578E+05    0.83252E-03   -0.68118E-03 19952   0.795E-02    0.331E-01
DAV:   7    -0.106678767835E+05    0.87430E-03   -0.70876E-03 16816   0.487E-02    0.136E-01
DAV:   8    -0.106678768153E+05   -0.31845E-04   -0.15689E-03 16176   0.306E-02    0.935E-02
DAV:   9    -0.106678768659E+05   -0.50565E-04   -0.40669E-04 10416   0.185E-02
   62 T=  1302. E= -.10711772E+05 F= -.10667877E+05 E0= -.10667877E+05  EK= 0.25843E+03 SP= -.30E+03 SK= 0.90E-02
       N       E                     dE             d eps       ncg     rms          rms(c)
DAV:   1    -0.106704947529E+05   -0.26179E+01   -0.69365E+00 17632   0.982E+00    0.208E+00
DAV:   2    -0.106717972378E+05   -0.13025E+01   -0.13601E+01 18576   0.316E+00    0.128E+00
DAV:   3    -0.106718426712E+05   -0.45433E-01   -0.64179E-01 19376   0.494E-01    0.110E+00
DAV:   4    -0.106718332750E+05    0.93962E-02   -0.11238E-01 20368   0.231E-01    0.671E-01
DAV:   5    -0.106718324500E+05    0.82502E-03   -0.48129E-02 19936   0.134E-01    0.414E-01
DAV:   6    -0.106718318951E+05    0.55485E-03   -0.64835E-03 20016   0.760E-02    0.316E-01
DAV:   7    -0.106718310598E+05    0.83537E-03   -0.58611E-03 17104   0.456E-02    0.133E-01
DAV:   8    -0.106718310716E+05   -0.11831E-04   -0.15677E-03 16192   0.295E-02    0.868E-02
DAV:   9    -0.106718311011E+05   -0.29468E-04   -0.29680E-04  9232   0.182E-02
   63 T=  1323. E= -.10711790E+05 F= -.10671831E+05 E0= -.10671831E+05  EK= 0.26244E+03 SP= -.30E+03 SK= 0.19E-01
       N       E                     dE             d eps       ncg     rms          rms(c)
DAV:   1    -0.106741780116E+05   -0.23469E+01   -0.71102E+00 17488   0.993E+00    0.209E+00
DAV:   2    -0.106754907475E+05   -0.13127E+01   -0.13708E+01 18592   0.318E+00    0.127E+00
DAV:   3    -0.106755368552E+05   -0.46108E-01   -0.64827E-01 19456   0.496E-01    0.110E+00
DAV:   4    -0.106755277172E+05    0.91380E-02   -0.11125E-01 20496   0.231E-01    0.670E-01
DAV:   5    -0.106755265144E+05    0.12027E-02   -0.46507E-02 19904   0.132E-01    0.398E-01
DAV:   6    -0.106755261744E+05    0.34004E-03   -0.67087E-03 20032   0.752E-02    0.309E-01
DAV:   7    -0.106755253721E+05    0.80235E-03   -0.47086E-03 16976   0.423E-02    0.138E-01
DAV:   8    -0.106755253530E+05    0.19057E-04   -0.16405E-03 16800   0.289E-02    0.841E-02
DAV:   9    -0.106755253745E+05   -0.21547E-04   -0.20563E-04  8272   0.181E-02
   64 T=  1345. E= -.10711816E+05 F= -.10675525E+05 E0= -.10675525E+05  EK= 0.26693E+03 SP= -.30E+03 SK= 0.12E+00
       N       E                     dE             d eps       ncg     rms          rms(c)
DAV:   1    -0.106774016312E+05   -0.18763E+01   -0.73869E+00 17392   0.101E+01    0.210E+00
DAV:   2    -0.106787355632E+05   -0.13339E+01   -0.13931E+01 18624   0.321E+00    0.129E+00
DAV:   3    -0.106787826840E+05   -0.47121E-01   -0.65783E-01 19536   0.499E-01    0.111E+00
DAV:   4    -0.106787733272E+05    0.93568E-02   -0.11391E-01 20624   0.234E-01    0.673E-01
DAV:   5    -0.106787723190E+05    0.10082E-02   -0.47562E-02 19920   0.134E-01    0.405E-01
DAV:   6    -0.106787719029E+05    0.41611E-03   -0.67284E-03 19984   0.755E-02    0.315E-01
DAV:   7    -0.106787711004E+05    0.80247E-03   -0.50571E-03 17184   0.433E-02    0.137E-01
DAV:   8    -0.106787710907E+05    0.96936E-05   -0.15922E-03 16352   0.289E-02    0.858E-02
DAV:   9    -0.106787711123E+05   -0.21581E-04   -0.21240E-04  8288   0.184E-02
   65 T=  1369. E= -.10711860E+05 F= -.10678771E+05 E0= -.10678771E+05  EK= 0.27162E+03 SP= -.30E+03 SK= 0.27E+00
       N       E                     dE             d eps       ncg     rms          rms(c)
DAV:   1    -0.106799200079E+05   -0.11489E+01   -0.75748E+00 17392   0.102E+01    0.211E+00
DAV:   2    -0.106812718117E+05   -0.13518E+01   -0.14115E+01 18608   0.323E+00    0.131E+00
DAV:   3    -0.106813206753E+05   -0.48864E-01   -0.67531E-01 19648   0.508E-01    0.112E+00
DAV:   4    -0.106813107749E+05    0.99004E-02   -0.11726E-01 20640   0.242E-01    0.681E-01
DAV:   5    -0.106813100493E+05    0.72564E-03   -0.50325E-02 19760   0.137E-01    0.425E-01
DAV:   6    -0.106813094843E+05    0.56500E-03   -0.72853E-03 20064   0.789E-02    0.330E-01
DAV:   7    -0.106813086174E+05    0.86683E-03   -0.60214E-03 17312   0.460E-02    0.143E-01
DAV:   8    -0.106813086154E+05    0.19899E-05   -0.16359E-03 16528   0.297E-02    0.918E-02
DAV:   9    -0.106813086500E+05   -0.34529E-04   -0.30563E-04  9472   0.191E-02
   66 T=  1392. E= -.10711894E+05 F= -.10681309E+05 E0= -.10681309E+05  EK= 0.27620E+03 SP= -.31E+03 SK= 0.43E+00
       N       E                     dE             d eps       ncg     rms          rms(c)
DAV:   1    -0.106815855952E+05   -0.27698E+00   -0.75385E+00 17376   0.101E+01    0.211E+00
DAV:   2    -0.106829445752E+05   -0.13590E+01   -0.14179E+01 18576   0.323E+00    0.131E+00
DAV:   3    -0.106829935513E+05   -0.48976E-01   -0.67741E-01 19840   0.505E-01    0.112E+00
DAV:   4    -0.106829834172E+05    0.10134E-01   -0.11595E-01 20624   0.243E-01    0.688E-01
DAV:   5    -0.106829827078E+05    0.70945E-03   -0.50478E-02 19824   0.137E-01    0.433E-01
DAV:   6    -0.106829819697E+05    0.73814E-03   -0.73963E-03 19904   0.802E-02    0.330E-01
DAV:   7    -0.106829811604E+05    0.80930E-03   -0.63564E-03 17264   0.466E-02    0.139E-01
DAV:   8    -0.106829811719E+05   -0.11548E-04   -0.14773E-03 15936   0.294E-02    0.932E-02
DAV:   9    -0.106829812159E+05   -0.44043E-04   -0.31462E-04  9536   0.188E-02
   67 T=  1413. E= -.10711907E+05 F= -.10682981E+05 E0= -.10682981E+05  EK= 0.28044E+03 SP= -.31E+03 SK= 0.60E+00
       N       E                     dE             d eps       ncg     rms          rms(c)
DAV:   1    -0.106824263496E+05    0.55482E+00   -0.73504E+00 17472   0.103E+01    0.208E+00
DAV:   2    -0.106837810862E+05   -0.13547E+01   -0.14111E+01 18608   0.321E+00    0.127E+00
DAV:   3    -0.106838298347E+05   -0.48749E-01   -0.66647E-01 19760   0.503E-01    0.109E+00
DAV:   4    -0.106838207099E+05    0.91248E-02   -0.10816E-01 20592   0.240E-01    0.679E-01
DAV:   5    -0.106838193666E+05    0.13433E-02   -0.46194E-02 19616   0.131E-01    0.411E-01
DAV:   6    -0.106838188650E+05    0.50156E-03   -0.74201E-03 19952   0.786E-02    0.314E-01
DAV:   7    -0.106838181203E+05    0.74473E-03   -0.51545E-03 17376   0.437E-02    0.137E-01
DAV:   8    -0.106838181172E+05    0.30840E-05   -0.14109E-03 15952   0.281E-02    0.893E-02
DAV:   9    -0.106838181490E+05   -0.31760E-04   -0.19887E-04  8208   0.177E-02
   68 T=  1433. E= -.10711887E+05 F= -.10683818E+05 E0= -.10683818E+05  EK= 0.28429E+03 SP= -.31E+03 SK= 0.74E+00
       N       E                     dE             d eps       ncg     rms          rms(c)
DAV:   1    -0.106827856985E+05    0.10324E+01   -0.71327E+00 17568   0.102E+01    0.208E+00
DAV:   2    -0.106841320495E+05   -0.13464E+01   -0.14025E+01 18608   0.316E+00    0.124E+00
DAV:   3    -0.106841820912E+05   -0.50042E-01   -0.67207E-01 19936   0.500E-01    0.108E+00
DAV:   4    -0.106841736812E+05    0.84100E-02   -0.10279E-01 20784   0.238E-01    0.676E-01
DAV:   5    -0.106841718211E+05    0.18602E-02   -0.43498E-02 19616   0.127E-01    0.390E-01
DAV:   6    -0.106841715483E+05    0.27279E-03   -0.76313E-03 19952   0.772E-02    0.303E-01
DAV:   7    -0.106841708517E+05    0.69657E-03   -0.41888E-03 17184   0.408E-02    0.138E-01
DAV:   8    -0.106841708251E+05    0.26643E-04   -0.15380E-03 16624   0.277E-02    0.847E-02
DAV:   9    -0.106841708529E+05   -0.27817E-04   -0.16918E-04  8032   0.178E-02
   69 T=  1451. E= -.10711882E+05 F= -.10684171E+05 E0= -.10684171E+05  EK= 0.28796E+03 SP= -.32E+03 SK= 0.86E+00
       N       E                     dE             d eps       ncg     rms          rms(c)
DAV:   1    -0.106830454699E+05    0.11254E+01   -0.69632E+00 17664   0.102E+01    0.209E+00
DAV:   2    -0.106843939785E+05   -0.13485E+01   -0.14047E+01 18624   0.316E+00    0.126E+00
DAV:   3    -0.106844434499E+05   -0.49471E-01   -0.66699E-01 19968   0.499E-01    0.109E+00
DAV:   4    -0.106844344472E+05    0.90026E-02   -0.10614E-01 20688   0.239E-01    0.684E-01
DAV:   5    -0.106844329845E+05    0.14627E-02   -0.47083E-02 19632   0.130E-01    0.403E-01
DAV:   6    -0.106844325156E+05    0.46893E-03   -0.73159E-03 19984   0.786E-02    0.310E-01
DAV:   7    -0.106844317819E+05    0.73370E-03   -0.50996E-03 17152   0.431E-02    0.133E-01
DAV:   8    -0.106844317848E+05   -0.28843E-05   -0.14371E-03 15616   0.282E-02    0.881E-02
DAV:   9    -0.106844318176E+05   -0.32862E-04   -0.19486E-04  8160   0.178E-02
   70 T=  1470. E= -.10711906E+05 F= -.10684432E+05 E0= -.10684432E+05  EK= 0.29176E+03 SP= -.32E+03 SK= 0.94E+00
       N       E                     dE             d eps       ncg     rms          rms(c)
DAV:   1    -0.106834068594E+05    0.10249E+01   -0.66706E+00 17600   0.102E+01    0.210E+00
DAV:   2    -0.106847487738E+05   -0.13419E+01   -0.14008E+01 18624   0.317E+00    0.129E+00
DAV:   3    -0.106847965928E+05   -0.47819E-01   -0.65989E-01 19872   0.502E-01    0.113E+00
DAV:   4    -0.106847863300E+05    0.10263E-01   -0.10952E-01 20608   0.240E-01    0.699E-01
[...]
DAV:   9    -0.107155558271E+05   -0.53326E-04   -0.29636E-04  9104   0.191E-02
  131 T=  1552. E= -.10712330E+05 F= -.10715556E+05 E0= -.10715556E+05  EK= 0.30785E+03 SP= -.31E+03 SK= 0.10E+01
       N       E                     dE             d eps       ncg     rms          rms(c)
DAV:   1    -0.107125837106E+05    0.29721E+01   -0.10245E+01 17424   0.106E+01    0.231E+00
DAV:   2    -0.107141333642E+05   -0.15497E+01   -0.16188E+01 18576   0.341E+00    0.144E+00
DAV:   3    -0.107141851588E+05   -0.51795E-01   -0.75070E-01 19920   0.550E-01    0.123E+00
DAV:   4    -0.107141728241E+05    0.12335E-01   -0.14254E-01 20544   0.261E-01    0.726E-01
DAV:   5    -0.107141726373E+05    0.18680E-03   -0.54641E-02 20016   0.143E-01    0.466E-01
DAV:   6    -0.107141717992E+05    0.83817E-03   -0.72092E-03 20208   0.806E-02    0.346E-01
DAV:   7    -0.107141708410E+05    0.95818E-03   -0.73642E-03 17104   0.506E-02    0.131E-01
DAV:   8    -0.107141708919E+05   -0.50855E-04   -0.19943E-03 17504   0.332E-02    0.857E-02
DAV:   9    -0.107141709438E+05   -0.51899E-04   -0.22483E-04  8480   0.185E-02
  132 T=  1564. E= -.10712387E+05 F= -.10714171E+05 E0= -.10714171E+05  EK= 0.31030E+03 SP= -.31E+03 SK= 0.86E+00
       N       E                     dE             d eps       ncg     rms          rms(c)
DAV:   1    -0.107102594309E+05    0.39115E+01   -0.10041E+01 17648   0.106E+01    0.234E+00
DAV:   2    -0.107118148372E+05   -0.15554E+01   -0.16271E+01 18560   0.339E+00    0.144E+00
DAV:   3    -0.107118652487E+05   -0.50412E-01   -0.74377E-01 19776   0.554E-01    0.125E+00
DAV:   4    -0.107118523372E+05    0.12912E-01   -0.14341E-01 20384   0.263E-01    0.734E-01
DAV:   5    -0.107118518857E+05    0.45145E-03   -0.55829E-02 19936   0.143E-01    0.468E-01
DAV:   6    -0.107118512279E+05    0.65782E-03   -0.75388E-03 20144   0.814E-02    0.355E-01
DAV:   7    -0.107118501618E+05    0.10661E-02   -0.73851E-03 17136   0.516E-02    0.140E-01
DAV:   8    -0.107118501919E+05   -0.30076E-04   -0.23256E-03 17744   0.346E-02    0.883E-02
DAV:   9    -0.107118502400E+05   -0.48109E-04   -0.30914E-04  9248   0.195E-02
  133 T=  1570. E= -.10712420E+05 F= -.10711850E+05 E0= -.10711850E+05  EK= 0.31149E+03 SP= -.31E+03 SK= 0.69E+00
       N       E                     dE             d eps       ncg     rms          rms(c)
DAV:   1    -0.107069712844E+05    0.48789E+01   -0.10070E+01 17760   0.106E+01    0.235E+00
DAV:   2    -0.107085255308E+05   -0.15542E+01   -0.16270E+01 18592   0.335E+00    0.147E+00
DAV:   3    -0.107085719599E+05   -0.46429E-01   -0.71486E-01 19760   0.540E-01    0.127E+00
DAV:   4    -0.107085576537E+05    0.14306E-01   -0.14436E-01 20336   0.262E-01    0.752E-01
DAV:   5    -0.107085571921E+05    0.46156E-03   -0.61284E-02 19936   0.148E-01    0.482E-01
DAV:   6    -0.107085564509E+05    0.74123E-03   -0.80831E-03 20128   0.846E-02    0.370E-01
DAV:   7    -0.107085552530E+05    0.11980E-02   -0.81977E-03 17168   0.535E-02    0.147E-01
DAV:   8    -0.107085552841E+05   -0.31180E-04   -0.25319E-03 17648   0.356E-02    0.938E-02
DAV:   9    -0.107085553307E+05   -0.46593E-04   -0.31643E-04  9376   0.197E-02
  134 T=  1569. E= -.10712418E+05 F= -.10708555E+05 E0= -.10708555E+05  EK= 0.31135E+03 SP= -.32E+03 SK= 0.53E+00
       N       E                     dE             d eps       ncg     rms          rms(c)
DAV:   1    -0.107030537533E+05    0.55015E+01   -0.10185E+01 17808   0.106E+01    0.239E+00
DAV:   2    -0.107046204449E+05   -0.15667E+01   -0.16415E+01 18576   0.334E+00    0.146E+00
DAV:   3    -0.107046666713E+05   -0.46226E-01   -0.71397E-01 19760   0.542E-01    0.129E+00
DAV:   4    -0.107046520747E+05    0.14597E-01   -0.14119E-01 20368   0.260E-01    0.764E-01
DAV:   5    -0.107046513196E+05    0.75510E-03   -0.64584E-02 19888   0.151E-01    0.480E-01
DAV:   6    -0.107046506461E+05    0.67353E-03   -0.85694E-03 19984   0.873E-02    0.370E-01
DAV:   7    -0.107046494227E+05    0.12234E-02   -0.80916E-03 17040   0.533E-02    0.150E-01
DAV:   8    -0.107046494540E+05   -0.31378E-04   -0.25893E-03 17744   0.356E-02    0.957E-02
DAV:   9    -0.107046494939E+05   -0.39848E-04   -0.30334E-04  9056   0.199E-02
  135 T=  1563. E= -.10712415E+05 F= -.10704649E+05 E0= -.10704649E+05  EK= 0.31019E+03 SP= -.32E+03 SK= 0.40E+00
       N       E                     dE             d eps       ncg     rms          rms(c)
DAV:   1    -0.106990409018E+05    0.56086E+01   -0.10236E+01 17712   0.107E+01    0.239E+00
DAV:   2    -0.107006131627E+05   -0.15723E+01   -0.16466E+01 18560   0.335E+00    0.145E+00
DAV:   3    -0.107006603009E+05   -0.47138E-01   -0.71528E-01 19520   0.545E-01    0.128E+00
DAV:   4    -0.107006461366E+05    0.14164E-01   -0.14079E-01 20368   0.260E-01    0.763E-01
DAV:   5    -0.107006455301E+05    0.60658E-03   -0.64346E-02 19968   0.151E-01    0.480E-01
DAV:   6    -0.107006447292E+05    0.80080E-03   -0.80540E-03 19936   0.858E-02    0.367E-01
DAV:   7    -0.107006435667E+05    0.11625E-02   -0.84791E-03 16976   0.541E-02    0.144E-01
DAV:   8    -0.107006436198E+05   -0.53095E-04   -0.25186E-03 17616   0.355E-02    0.983E-02
DAV:   9    -0.107006436515E+05   -0.31650E-04   -0.37322E-04  9728   0.204E-02
  136 T=  1555. E= -.10712404E+05 F= -.10700644E+05 E0= -.10700644E+05  EK= 0.30857E+03 SP= -.32E+03 SK= 0.30E+00
       N       E                     dE             d eps       ncg     rms          rms(c)
DAV:   1    -0.106954431738E+05    0.52004E+01   -0.98745E+00 17888   0.106E+01    0.238E+00
DAV:   2    -0.106969937178E+05   -0.15505E+01   -0.16232E+01 18528   0.333E+00    0.145E+00
DAV:   3    -0.106970424773E+05   -0.48760E-01   -0.71938E-01 19824   0.540E-01    0.127E+00
DAV:   4    -0.106970279219E+05    0.14555E-01   -0.14087E-01 20288   0.262E-01    0.755E-01
DAV:   5    -0.106970282494E+05   -0.32753E-03   -0.66123E-02 19920   0.152E-01    0.503E-01
DAV:   6    -0.106970269030E+05    0.13464E-02   -0.82276E-03 19920   0.886E-02    0.376E-01
DAV:   7    -0.106970257538E+05    0.11492E-02   -0.10914E-02 17056   0.589E-02    0.140E-01
DAV:   8    -0.106970258343E+05   -0.80460E-04   -0.22543E-03 17456   0.366E-02    0.993E-02
DAV:   9    -0.106970259041E+05   -0.69797E-04   -0.59787E-04 12432   0.203E-02
  137 T=  1547. E= -.10712411E+05 F= -.10697026E+05 E0= -.10697026E+05  EK= 0.30699E+03 SP= -.32E+03 SK= 0.23E+00
       N       E                     dE             d eps       ncg     rms          rms(c)
DAV:   1    -0.106923544810E+05    0.46714E+01   -0.94758E+00 17760   0.106E+01    0.236E+00
DAV:   2    -0.106938877848E+05   -0.15333E+01   -0.16037E+01 18528   0.333E+00    0.145E+00
DAV:   3    -0.106939370163E+05   -0.49232E-01   -0.72243E-01 19712   0.541E-01    0.127E+00
DAV:   4    -0.106939223335E+05    0.14683E-01   -0.14352E-01 20240   0.264E-01    0.754E-01
DAV:   5    -0.106939232656E+05   -0.93210E-03   -0.69352E-02 19840   0.156E-01    0.520E-01
DAV:   6    -0.106939214367E+05    0.18289E-02   -0.88348E-03 20048   0.925E-02    0.378E-01
DAV:   7    -0.106939204256E+05    0.10110E-02   -0.12931E-02 17216   0.625E-02    0.139E-01
DAV:   8    -0.106939205047E+05   -0.79079E-04   -0.20867E-03 17712   0.374E-02    0.989E-02
DAV:   9    -0.106939205972E+05   -0.92434E-04   -0.78792E-04 12832   0.211E-02
  138 T=  1540. E= -.10712419E+05 F= -.10693921E+05 E0= -.10693921E+05  EK= 0.30562E+03 SP= -.32E+03 SK= 0.17E+00
       N       E                     dE             d eps       ncg     rms          rms(c)
DAV:   1    -0.106896633642E+05    0.42571E+01   -0.93429E+00 17776   0.107E+01    0.232E+00
DAV:   2    -0.106911857365E+05   -0.15224E+01   -0.15894E+01 18576   0.335E+00    0.139E+00
DAV:   3    -0.106912336285E+05   -0.47892E-01   -0.69232E-01 19808   0.529E-01    0.120E+00
DAV:   4    -0.106912213117E+05    0.12317E-01   -0.12803E-01 20592   0.254E-01    0.727E-01
DAV:   5    -0.106912210086E+05    0.30310E-03   -0.55386E-02 19840   0.141E-01    0.464E-01
DAV:   6    -0.106912198768E+05    0.11318E-02   -0.71984E-03 19840   0.826E-02    0.340E-01
DAV:   7    -0.106912190251E+05    0.85164E-03   -0.86064E-03 16784   0.532E-02    0.128E-01
DAV:   8    -0.106912190849E+05   -0.59812E-04   -0.17928E-03 16976   0.333E-02    0.913E-02
DAV:   9    -0.106912191607E+05   -0.75778E-04   -0.61658E-04 12208   0.203E-02
  139 T=  1534. E= -.10712414E+05 F= -.10691219E+05 E0= -.10691219E+05  EK= 0.30443E+03 SP= -.33E+03 SK= 0.12E+00
       N       E                     dE             d eps       ncg     rms          rms(c)
DAV:   1    -0.106874281367E+05    0.37909E+01   -0.94121E+00 17632   0.107E+01    0.228E+00
DAV:   2    -0.106889587987E+05   -0.15307E+01   -0.15945E+01 18576   0.338E+00    0.136E+00
DAV:   3    -0.106890084322E+05   -0.49633E-01   -0.70409E-01 19776   0.531E-01    0.117E+00
DAV:   4    -0.106889977156E+05    0.10717E-01   -0.12236E-01 20640   0.251E-01    0.720E-01
DAV:   5    -0.106889965912E+05    0.11244E-02   -0.48770E-02 19920   0.134E-01    0.437E-01
DAV:   6    -0.106889958526E+05    0.73862E-03   -0.68726E-03 19904   0.781E-02    0.323E-01
DAV:   7    -0.106889950940E+05    0.75855E-03   -0.61503E-03 16960   0.471E-02    0.127E-01
DAV:   8    -0.106889951325E+05   -0.38432E-04   -0.16754E-03 16592   0.307E-02    0.882E-02
DAV:   9    -0.106889951734E+05   -0.40953E-04   -0.34024E-04  9376   0.198E-02
  140 T=  1530. E= -.10712392E+05 F= -.10688995E+05 E0= -.10688995E+05  EK= 0.30350E+03 SP= -.33E+03 SK= 0.90E-01
       N       E                     dE             d eps       ncg     rms          rms(c)
DAV:   1    -0.106860365684E+05    0.29586E+01   -0.96089E+00 17584   0.107E+01    0.232E+00
DAV:   2    -0.106875653517E+05   -0.15288E+01   -0.15955E+01 18608   0.336E+00    0.141E+00
DAV:   3    -0.106876149361E+05   -0.49584E-01   -0.70942E-01 19712   0.534E-01    0.120E+00
DAV:   4    -0.106876031164E+05    0.11820E-01   -0.13598E-01 20496   0.262E-01    0.727E-01
DAV:   5    -0.106876031816E+05   -0.65136E-04   -0.54029E-02 19872   0.141E-01    0.479E-01
DAV:   6    -0.106876020195E+05    0.11620E-02   -0.73184E-03 20128   0.820E-02    0.354E-01
DAV:   7    -0.106876011139E+05    0.90565E-03   -0.91907E-03 16992   0.549E-02    0.135E-01
DAV:   8    -0.106876011622E+05   -0.48353E-04   -0.20201E-03 17472   0.350E-02    0.959E-02
DAV:   9    -0.106876012433E+05   -0.81031E-04   -0.79543E-04 12864   0.219E-02
  141 T=  1528. E= -.10712377E+05 F= -.10687601E+05 E0= -.10687601E+05  EK= 0.30321E+03 SP= -.33E+03 SK= 0.65E-01
       N       E                     dE             d eps       ncg     rms          rms(c)
DAV:   1    -0.106856947940E+05    0.19064E+01   -0.98641E+00 17312   0.107E+01    0.236E+00
DAV:   2    -0.106872610561E+05   -0.15663E+01   -0.16367E+01 18624   0.341E+00    0.150E+00
DAV:   3    -0.106873108786E+05   -0.49822E-01   -0.74030E-01 19888   0.546E-01    0.129E+00
DAV:   4    -0.106872961573E+05    0.14721E-01   -0.15324E-01 20304   0.275E-01    0.766E-01
DAV:   5    -0.106872970490E+05   -0.89179E-03   -0.66185E-02 19840   0.153E-01    0.528E-01
DAV:   6    -0.106872953044E+05    0.17446E-02   -0.87298E-03 20064   0.914E-02    0.388E-01
DAV:   7    -0.106872942268E+05    0.10776E-02   -0.11674E-02 17216   0.599E-02    0.145E-01
DAV:   8    -0.106872943042E+05   -0.77405E-04   -0.21282E-03 17664   0.369E-02    0.103E-01
DAV:   9    -0.106872944116E+05   -0.10736E-03   -0.75166E-04 12848   0.213E-02    0.757E-02
DAV:  10    -0.106872943559E+05    0.55653E-04   -0.80940E-05  7760   0.153E-02
  142 T=  1531. E= -.10712373E+05 F= -.10687294E+05 E0= -.10687294E+05  EK= 0.30381E+03 SP= -.33E+03 SK= 0.43E-01
       N       E                     dE             d eps       ncg     rms          rms(c)
DAV:   1    -0.106864671819E+05    0.82723E+00   -0.99413E+00 17280   0.106E+01    0.233E+00
DAV:   2    -0.106880699842E+05   -0.16028E+01   -0.16688E+01 18592   0.346E+00    0.151E+00
DAV:   3    -0.106881174428E+05   -0.47459E-01   -0.75119E-01 19808   0.552E-01    0.131E+00
DAV:   4    -0.106881029607E+05    0.14482E-01   -0.14788E-01 20352   0.266E-01    0.785E-01
DAV:   5    -0.106881017345E+05    0.12262E-02   -0.64077E-02 19920   0.152E-01    0.484E-01
DAV:   6    -0.106881010655E+05    0.66897E-03   -0.90293E-03 20272   0.891E-02    0.366E-01
DAV:   7    -0.106880999735E+05    0.10920E-02   -0.68775E-03 17552   0.494E-02    0.156E-01
DAV:   8    -0.106880999792E+05   -0.57317E-05   -0.20548E-03 17664   0.325E-02    0.977E-02
DAV:   9    -0.106881000313E+05   -0.52111E-04   -0.20038E-04  8128   0.182E-02
  143 T=  1539. E= -.10712386E+05 F= -.10688100E+05 E0= -.10688100E+05  EK= 0.30532E+03 SP= -.33E+03 SK= 0.23E-01
       N       E                     dE             d eps       ncg     rms          rms(c)
DAV:   1    -0.106881061344E+05   -0.61551E-02   -0.96679E+00 17312   0.106E+01    0.239E+00
DAV:   2    -0.106896608903E+05   -0.15548E+01   -0.16348E+01 18576   0.345E+00    0.141E+00
DAV:   3    -0.106897185497E+05   -0.57659E-01   -0.78198E-01 19840   0.560E-01    0.123E+00
DAV:   4    -0.106897059311E+05    0.12619E-01   -0.14103E-01 20256   0.267E-01    0.736E-01
DAV:   5    -0.106897061901E+05   -0.25906E-03   -0.59458E-02 19936   0.145E-01    0.484E-01
DAV:   6    -0.106897051150E+05    0.10751E-02   -0.76379E-03 20128   0.846E-02    0.368E-01
DAV:   7    -0.106897040482E+05    0.10668E-02   -0.90598E-03 16896   0.547E-02    0.142E-01
DAV:   8    -0.106897040921E+05   -0.43843E-04   -0.23060E-03 17472   0.352E-02    0.970E-02
DAV:   9    -0.106897041518E+05   -0.59713E-04   -0.63051E-04 12608   0.214E-02
  144 T=  1549. E= -.10712440E+05 F= -.10689704E+05 E0= -.10689704E+05  EK= 0.30734E+03 SP= -.33E+03 SK= 0.76E-02
       N       E                     dE             d eps       ncg     rms          rms(c)
DAV:   1    -0.106897254731E+05   -0.21381E-01   -0.93773E+00 17408   0.106E+01    0.230E+00
DAV:   2    -0.106912843825E+05   -0.15589E+01   -0.16262E+01 18608   0.341E+00    0.147E+00
DAV:   3    -0.106913340427E+05   -0.49660E-01   -0.74156E-01 19696   0.546E-01    0.127E+00
DAV:   4    -0.106913205266E+05    0.13516E-01   -0.14329E-01 20320   0.264E-01    0.764E-01
DAV:   5    -0.106913198513E+05    0.67530E-03   -0.61514E-02 19904   0.149E-01    0.480E-01
DAV:   6    -0.106913188054E+05    0.10459E-02   -0.79033E-03 20368   0.867E-02    0.358E-01
DAV:   7    -0.106913178425E+05    0.96290E-03   -0.77449E-03 17184   0.509E-02    0.139E-01
DAV:   8    -0.106913178927E+05   -0.50142E-04   -0.18911E-03 16896   0.322E-02    0.958E-02
DAV:   9    -0.106913179553E+05   -0.62644E-04   -0.31843E-04  9280   0.195E-02
  145 T=  1558. E= -.10712481E+05 F= -.10691318E+05 E0= -.10691318E+05  EK= 0.30910E+03 SP= -.33E+03 SK= 0.59E-04
       N       E                     dE             d eps       ncg     rms          rms(c)
DAV:   1    -0.106906667315E+05    0.65116E+00   -0.92644E+00 17456   0.106E+01    0.232E+00
DAV:   2    -0.106922011253E+05   -0.15344E+01   -0.16053E+01 18608   0.338E+00    0.142E+00
DAV:   3    -0.106922553389E+05   -0.54214E-01   -0.75795E-01 19856   0.545E-01    0.124E+00
DAV:   4    -0.106922426007E+05    0.12738E-01   -0.13661E-01 20528   0.267E-01    0.745E-01
DAV:   5    -0.106922423416E+05    0.25914E-03   -0.60782E-02 19776   0.146E-01    0.476E-01
DAV:   6    -0.106922413501E+05    0.99146E-03   -0.81527E-03 19968   0.866E-02    0.366E-01
DAV:   7    -0.106922403282E+05    0.10219E-02   -0.87557E-03 16832   0.541E-02    0.142E-01
DAV:   8    -0.106922403771E+05   -0.48837E-04   -0.22204E-03 17488   0.348E-02    0.984E-02
DAV:   9    -0.106922404497E+05   -0.72623E-04   -0.58443E-04 12176   0.214E-02
  146 T=  1562. E= -.10712507E+05 F= -.10692240E+05 E0= -.10692240E+05  EK= 0.30985E+03 SP= -.33E+03 SK= 0.65E-02
       N       E                     dE             d eps       ncg     rms          rms(c)
DAV:   1    -0.106904302043E+05    0.18102E+01   -0.92712E+00 17264   0.106E+01    0.229E+00
DAV:   2    -0.106919789182E+05   -0.15487E+01   -0.16136E+01 18608   0.337E+00    0.143E+00
DAV:   3    -0.106920323054E+05   -0.53387E-01   -0.75124E-01 20112   0.539E-01    0.123E+00
DAV:   4    -0.106920196308E+05    0.12675E-01   -0.13825E-01 20624   0.267E-01    0.741E-01
DAV:   5    -0.106920196630E+05   -0.32137E-04   -0.57505E-02 19744   0.142E-01    0.484E-01
DAV:   6    -0.106920183871E+05    0.12759E-02   -0.76329E-03 19936   0.849E-02    0.359E-01
DAV:   7    -0.106920174808E+05    0.90629E-03   -0.89667E-03 17008   0.537E-02    0.135E-01
DAV:   8    -0.106920175507E+05   -0.69937E-04   -0.18504E-03 16928   0.337E-02    0.986E-02
DAV:   9    -0.106920176509E+05   -0.10021E-03   -0.63615E-04 12544   0.204E-02    0.722E-02
DAV:  10    -0.106920176123E+05    0.38613E-04   -0.77290E-05  7712   0.142E-02
  147 T=  1558. E= -.10712469E+05 F= -.10692018E+05 E0= -.10692018E+05  EK= 0.30917E+03 SP= -.33E+03 SK= 0.29E-01
       N       E                     dE             d eps       ncg     rms          rms(c)
DAV:   1    -0.106892203001E+05    0.27974E+01   -0.92457E+00 17392   0.106E+01    0.226E+00
DAV:   2    -0.106907816779E+05   -0.15614E+01   -0.16191E+01 18592   0.335E+00    0.142E+00
DAV:   3    -0.106908317589E+05   -0.50081E-01   -0.73648E-01 20080   0.542E-01    0.123E+00
DAV:   4    -0.106908196815E+05    0.12077E-01   -0.13204E-01 20624   0.260E-01    0.744E-01
DAV:   5    -0.106908183830E+05    0.12985E-02   -0.52400E-02 19792   0.138E-01    0.453E-01
DAV:   6    -0.106908177693E+05    0.61368E-03   -0.77327E-03 19888   0.818E-02    0.336E-01
DAV:   7    -0.106908168895E+05    0.87980E-03   -0.59132E-03 17024   0.468E-02    0.139E-01
DAV:   8    -0.106908169145E+05   -0.25018E-04   -0.17922E-03 16976   0.312E-02    0.919E-02
DAV:   9    -0.106908169679E+05   -0.53324E-04   -0.19352E-04  8176   0.180E-02
  148 T=  1548. E= -.10712435E+05 F= -.10690817E+05 E0= -.10690817E+05  EK= 0.30717E+03 SP= -.33E+03 SK= 0.62E-01
       N       E                     dE             d eps       ncg     rms          rms(c)
DAV:   1    -0.106875721351E+05    0.32448E+01   -0.90381E+00 17504   0.105E+01    0.234E+00
DAV:   2    -0.106890884197E+05   -0.15163E+01   -0.15865E+01 18560   0.330E+00    0.134E+00
DAV:   3    -0.106891426114E+05   -0.54192E-01   -0.72592E-01 19904   0.539E-01    0.117E+00
DAV:   4    -0.106891316984E+05    0.10913E-01   -0.12707E-01 20704   0.256E-01    0.707E-01
DAV:   5    -0.106891315267E+05    0.17168E-03   -0.50081E-02 19888   0.134E-01    0.453E-01
DAV:   6    -0.106891307662E+05    0.76050E-03   -0.68597E-03 20032   0.781E-02    0.345E-01
DAV:   7    -0.106891298211E+05    0.94515E-03   -0.77138E-03 16608   0.516E-02    0.135E-01
DAV:   8    -0.106891298556E+05   -0.34567E-04   -0.21483E-03 17408   0.344E-02    0.932E-02
DAV:   9    -0.106891299082E+05   -0.52508E-04   -0.63255E-04 12496   0.214E-02
  149 T=  1534. E= -.10712380E+05 F= -.10689130E+05 E0= -.10689130E+05  EK= 0.30443E+03 SP= -.33E+03 SK= 0.97E-01
       N       E                     dE             d eps       ncg     rms          rms(c)
DAV:   1    -0.106860432923E+05    0.30866E+01   -0.90882E+00 17472   0.104E+01    0.229E+00
DAV:   2    -0.106875829170E+05   -0.15396E+01   -0.16035E+01 18608   0.331E+00    0.143E+00
DAV:   3    -0.106876294496E+05   -0.46533E-01   -0.69489E-01 19776   0.527E-01    0.125E+00
DAV:   4    -0.106876162116E+05    0.13238E-01   -0.13080E-01 20528   0.254E-01    0.753E-01
DAV:   5    -0.106876152698E+05    0.94182E-03   -0.56551E-02 19840   0.142E-01    0.466E-01
DAV:   6    -0.106876145043E+05    0.76552E-03   -0.77176E-03 19968   0.834E-02    0.349E-01
DAV:   7    -0.106876135535E+05    0.95074E-03   -0.68286E-03 16848   0.488E-02    0.142E-01
DAV:   8    -0.106876135875E+05   -0.33916E-04   -0.19333E-03 17536   0.322E-02    0.950E-02
DAV:   9    -0.106876136397E+05   -0.52284E-04   -0.32387E-04  9360   0.197E-02
  150 T=  1520. E= -.10712366E+05 F= -.10687614E+05 E0= -.10687614E+05  EK= 0.30162E+03 SP= -.33E+03 SK= 0.13E+00
